 Entering Gaussian System, Link 0=C:\G09W\g09.exe
 Input=pyrrole_rdkit.com
 Output=C:\workspace\delta_chem\data\raw\pyrrole\pyrrole_rdkit.out
 Initial command:
 C:\G09W\l1.exe ".\Gau-14812.inp" "C:\workspace\delta_chem\data\raw\pyrrole\pyrrole_rdkit.out" /scrdir=".\"
 Entering Link 1 = C:\G09W\l1.exe PID=     14976.
  
 Copyright (c) 1988,1990,1992,1993,1995,1998,2003,2009,2013,
            Gaussian, Inc.  All Rights Reserved.
  
 This is part of the Gaussian(R) 09 program.  It is based on
 the Gaussian(R) 03 system (copyright 2003, Gaussian, Inc.),
 the Gaussian(R) 98 system (copyright 1998, Gaussian, Inc.),
 the Gaussian(R) 94 system (copyright 1995, Gaussian, Inc.),
 the Gaussian 92(TM) system (copyright 1992, Gaussian, Inc.),
 the Gaussian 90(TM) system (copyright 1990, Gaussian, Inc.),
 the Gaussian 88(TM) system (copyright 1988, Gaussian, Inc.),
 the Gaussian 86(TM) system (copyright 1986, Carnegie Mellon
 University), and the Gaussian 82(TM) system (copyright 1983,
 Carnegie Mellon University). Gaussian is a federally registered
 trademark of Gaussian, Inc.
  
 This software contains proprietary and confidential information,
 including trade secrets, belonging to Gaussian, Inc.
  
 This software is provided under written license and may be
 used, copied, transmitted, or stored only in accord with that
 written license.
  
 The following legend is applicable only to US Government
 contracts under FAR:
  
                    RESTRICTED RIGHTS LEGEND
  
 Use, reproduction and disclosure by the US Government is
 subject to restrictions as set forth in subparagraphs (a)
 and (c) of the Commercial Computer Software - Restricted
 Rights clause in FAR 52.227-19.
  
 Gaussian, Inc.
 340 Quinnipiac St., Bldg. 40, Wallingford CT 06492
  
  
 ---------------------------------------------------------------
 Warning -- This program may not be used in any manner that
 competes with the business of Gaussian, Inc. or will provide
 assistance to any competitor of Gaussian, Inc.  The licensee
 of this program is prohibited from giving any competitor of
 Gaussian, Inc. access to this program.  By using this program,
 the user acknowledges that Gaussian, Inc. is engaged in the
 business of creating and licensing software in the field of
 computational chemistry and represents and warrants to the
 licensee that it is not a competitor of Gaussian, Inc. and that
 it will not use this program in any manner prohibited above.
 ---------------------------------------------------------------
  

 Cite this work as:
 Gaussian 09, Revision D.01,
 M. J. Frisch, G. W. Trucks, H. B. Schlegel, G. E. Scuseria, 
 M. A. Robb, J. R. Cheeseman, G. Scalmani, V. Barone, B. Mennucci, 
 G. A. Petersson, H. Nakatsuji, M. Caricato, X. Li, H. P. Hratchian, 
 A. F. Izmaylov, J. Bloino, G. Zheng, J. L. Sonnenberg, M. Hada, 
 M. Ehara, K. Toyota, R. Fukuda, J. Hasegawa, M. Ishida, T. Nakajima, 
 Y. Honda, O. Kitao, H. Nakai, T. Vreven, J. A. Montgomery, Jr., 
 J. E. Peralta, F. Ogliaro, M. Bearpark, J. J. Heyd, E. Brothers, 
 K. N. Kudin, V. N. Staroverov, T. Keith, R. Kobayashi, J. Normand, 
 K. Raghavachari, A. Rendell, J. C. Burant, S. S. Iyengar, J. Tomasi, 
 M. Cossi, N. Rega, J. M. Millam, M. Klene, J. E. Knox, J. B. Cross, 
 V. Bakken, C. Adamo, J. Jaramillo, R. Gomperts, R. E. Stratmann, 
 O. Yazyev, A. J. Austin, R. Cammi, C. Pomelli, J. W. Ochterski, 
 R. L. Martin, K. Morokuma, V. G. Zakrzewski, G. A. Voth, 
 P. Salvador, J. J. Dannenberg, S. Dapprich, A. D. Daniels, 
 O. Farkas, J. B. Foresman, J. V. Ortiz, J. Cioslowski, 
 and D. J. Fox, Gaussian, Inc., Wallingford CT, 2013.
 
 ******************************************
 Gaussian 09:  EM64W-G09RevD.01 13-Apr-2013
                19-Mar-2026 
 ******************************************
 %NProcShared=4
 Will use up to    4 processors via shared memory.
 %Mem=4GB
 %Chk=pyrrole_rdkit.chk
 ---------------------
 #p opt B3LYP/6-31G(d)
 ---------------------
 1/14=-1,18=20,19=15,26=3,38=1/1,3;
 2/9=110,12=2,17=6,18=5,40=1/2;
 3/5=1,6=6,7=1,11=2,16=1,25=1,30=1,71=1,74=-5/1,2,3;
 4//1;
 5/5=2,38=5/2;
 6/7=2,8=2,9=2,10=2,28=1/1;
 7//1,2,3,16;
 1/14=-1,18=20,19=15,26=3/3(2);
 2/9=110/2;
 99//99;
 2/9=110/2;
 3/5=1,6=6,7=1,11=2,16=1,25=1,30=1,71=1,74=-5/1,2,3;
 4/5=5,16=3,69=1/1;
 5/5=2,38=5/2;
 7//1,2,3,16;
 1/14=-1,18=20,19=15,26=3/3(-5);
 2/9=110/2;
 6/7=2,8=2,9=2,10=2,19=2,28=1/1;
 99/9=1/99;
 Leave Link    1 at Thu Mar 19 18:16:23 2026, MaxMem=   536870912 cpu:         0.0
 (Enter C:\G09W\l101.exe)
 -------
 pyrrole
 -------
 Symbolic Z-matrix:
 Charge =  0 Multiplicity = 1
 C                     0.31148   1.1517    0.0686 
 C                     1.19403   0.04629   0.0165 
 C                     0.42232  -1.09189  -0.05669 
 N                    -0.89446  -0.71175  -0.05056 
 C                    -0.97199   0.6545    0.02562 
 H                     0.58311   2.19751   0.13075 
 H                     2.27579   0.0774    0.03084 
 H                     0.69638  -2.13679  -0.11244 
 H                    -1.68552  -1.34122  -0.09528 
 H                    -1.93115   1.15425   0.04265 
 
 NAtoms=     10 NQM=       10 NQMF=       0 NMMI=      0 NMMIF=      0
                NMic=       0 NMicF=      0.
                    Isotopes and Nuclear Properties:
 (Nuclear quadrupole moments (NQMom) in fm**2, nuclear magnetic moments (NMagM)
  in nuclear magnetons)

  Atom         1           2           3           4           5           6           7           8           9          10
 IAtWgt=          12          12          12          14          12           1           1           1           1           1
 AtmWgt=  12.0000000  12.0000000  12.0000000  14.0030740  12.0000000   1.0078250   1.0078250   1.0078250   1.0078250   1.0078250
 NucSpn=           0           0           0           2           0           1           1           1           1           1
 AtZEff=   0.0000000   0.0000000   0.0000000   0.0000000   0.0000000   0.0000000   0.0000000   0.0000000   0.0000000   0.0000000
 NQMom=    0.0000000   0.0000000   0.0000000   2.0440000   0.0000000   0.0000000   0.0000000   0.0000000   0.0000000   0.0000000
 NMagM=    0.0000000   0.0000000   0.0000000   0.4037610   0.0000000   2.7928460   2.7928460   2.7928460   2.7928460   2.7928460
 AtZNuc=   6.0000000   6.0000000   6.0000000   7.0000000   6.0000000   1.0000000   1.0000000   1.0000000   1.0000000   1.0000000
 Leave Link  101 at Thu Mar 19 18:16:24 2026, MaxMem=   536870912 cpu:         0.0
 (Enter C:\G09W\l103.exe)

 GradGradGradGradGradGradGradGradGradGradGradGradGradGradGradGradGradGrad
 Berny optimization.
 Initialization pass.
                           ----------------------------
                           !    Initial Parameters    !
                           ! (Angstroms and Degrees)  !
 --------------------------                            --------------------------
 ! Name  Definition              Value          Derivative Info.                !
 --------------------------------------------------------------------------------
 ! R1    R(1,2)                  1.4155         estimate D2E/DX2                !
 ! R2    R(1,5)                  1.3771         estimate D2E/DX2                !
 ! R3    R(1,6)                  1.0823         estimate D2E/DX2                !
 ! R4    R(2,3)                  1.3771         estimate D2E/DX2                !
 ! R5    R(2,7)                  1.0823         estimate D2E/DX2                !
 ! R6    R(3,4)                  1.3706         estimate D2E/DX2                !
 ! R7    R(3,8)                  1.0817         estimate D2E/DX2                !
 ! R8    R(4,5)                  1.3706         estimate D2E/DX2                !
 ! R9    R(4,9)                  1.0119         estimate D2E/DX2                !
 ! R10   R(5,10)                 1.0817         estimate D2E/DX2                !
 ! A1    A(2,1,5)              107.3381         estimate D2E/DX2                !
 ! A2    A(2,1,6)              126.8881         estimate D2E/DX2                !
 ! A3    A(5,1,6)              125.7737         estimate D2E/DX2                !
 ! A4    A(1,2,3)              107.3381         estimate D2E/DX2                !
 ! A5    A(1,2,7)              126.8881         estimate D2E/DX2                !
 ! A6    A(3,2,7)              125.7738         estimate D2E/DX2                !
 ! A7    A(2,3,4)              107.9948         estimate D2E/DX2                !
 ! A8    A(2,3,8)              131.2356         estimate D2E/DX2                !
 ! A9    A(4,3,8)              120.7696         estimate D2E/DX2                !
 ! A10   A(3,4,5)              109.3342         estimate D2E/DX2                !
 ! A11   A(3,4,9)              125.3329         estimate D2E/DX2                !
 ! A12   A(5,4,9)              125.3329         estimate D2E/DX2                !
 ! A13   A(1,5,4)              107.9948         estimate D2E/DX2                !
 ! A14   A(1,5,10)             131.2355         estimate D2E/DX2                !
 ! A15   A(4,5,10)             120.7697         estimate D2E/DX2                !
 ! D1    D(5,1,2,3)              0.0            estimate D2E/DX2                !
 ! D2    D(5,1,2,7)           -179.9997         estimate D2E/DX2                !
 ! D3    D(6,1,2,3)           -179.9999         estimate D2E/DX2                !
 ! D4    D(6,1,2,7)              0.0004         estimate D2E/DX2                !
 ! D5    D(2,1,5,4)             -0.0002         estimate D2E/DX2                !
 ! D6    D(2,1,5,10)           180.0            estimate D2E/DX2                !
 ! D7    D(6,1,5,4)            179.9997         estimate D2E/DX2                !
 ! D8    D(6,1,5,10)            -0.0001         estimate D2E/DX2                !
 ! D9    D(1,2,3,4)              0.0002         estimate D2E/DX2                !
 ! D10   D(1,2,3,8)           -179.9996         estimate D2E/DX2                !
 ! D11   D(7,2,3,4)            179.9999         estimate D2E/DX2                !
 ! D12   D(7,2,3,8)              0.0001         estimate D2E/DX2                !
 ! D13   D(2,3,4,5)             -0.0003         estimate D2E/DX2                !
 ! D14   D(2,3,4,9)            179.9998         estimate D2E/DX2                !
 ! D15   D(8,3,4,5)            179.9995         estimate D2E/DX2                !
 ! D16   D(8,3,4,9)             -0.0004         estimate D2E/DX2                !
 ! D17   D(3,4,5,1)              0.0003         estimate D2E/DX2                !
 ! D18   D(3,4,5,10)          -179.9998         estimate D2E/DX2                !
 ! D19   D(9,4,5,1)           -179.9998         estimate D2E/DX2                !
 ! D20   D(9,4,5,10)             0.0001         estimate D2E/DX2                !
 --------------------------------------------------------------------------------
 Trust Radius=3.00D-01 FncErr=1.00D-07 GrdErr=1.00D-06
 Number of steps in this run=     55 maximum allowed number of steps=    100.
 GradGradGradGradGradGradGradGradGradGradGradGradGradGradGradGradGradGrad

 Leave Link  103 at Thu Mar 19 18:16:24 2026, MaxMem=   536870912 cpu:         0.0
 (Enter C:\G09W\l202.exe)
                          Input orientation:                          
 ---------------------------------------------------------------------
 Center     Atomic      Atomic             Coordinates (Angstroms)
 Number     Number       Type             X           Y           Z
 ---------------------------------------------------------------------
      1          6           0        0.311483    1.151695    0.068595
      2          6           0        1.194033    0.046287    0.016501
      3          6           0        0.422315   -1.091890   -0.056685
      4          7           0       -0.894464   -0.711751   -0.050561
      5          6           0       -0.971988    0.654498    0.025617
      6          1           0        0.583113    2.197513    0.130752
      7          1           0        2.275794    0.077403    0.030844
      8          1           0        0.696383   -2.136786   -0.112438
      9          1           0       -1.685519   -1.341215   -0.095277
     10          1           0       -1.931150    1.154246    0.042653
 ---------------------------------------------------------------------
                    Distance matrix (angstroms):
                    1          2          3          4          5
     1  C    0.000000
     2  C    1.415463   0.000000
     3  C    2.249812   1.377081   0.000000
     4  N    2.222822   2.222822   1.370566   0.000000
     5  C    1.377080   2.249811   2.236230   1.370565   0.000000
     6  H    1.082304   2.239207   3.298660   3.268015   2.193237
     7  H    2.239207   1.082303   2.193238   3.268016   3.298659
     8  H    3.315875   2.242786   1.081679   2.136667   3.254810
     9  H    3.198354   3.198355   2.122879   1.011925   2.122878
    10  H    2.242784   3.315875   3.254811   2.136668   1.081679
                    6          7          8          9         10
     6  H    0.000000
     7  H    2.714778   0.000000
     8  H    4.342594   2.723546   0.000000
     9  H    4.209558   4.209559   2.511311   0.000000
    10  H    2.723543   4.342592   4.214128   2.511311   0.000000
 Stoichiometry    C4H5N
 Framework group  C1[X(C4H5N)]
 Deg. of freedom    24
 Full point group                 C1      NOp   1
 Largest Abelian subgroup         C1      NOp   1
 Largest concise Abelian subgroup C1      NOp   1
                         Standard orientation:                         
 ---------------------------------------------------------------------
 Center     Atomic      Atomic             Coordinates (Angstroms)
 Number     Number       Type             X           Y           Z
 ---------------------------------------------------------------------
      1          6           0       -0.983818   -0.707726    0.000000
      2          6           0       -0.983810    0.707737   -0.000001
      3          6           0        0.330702    1.118113    0.000001
      4          7           0        1.123329   -0.000007   -0.000002
      5          6           0        0.330689   -1.118117    0.000002
      6          1           0       -1.849459   -1.357378   -0.000003
      7          1           0       -1.849443    1.357399    0.000002
      8          1           0        0.768898    2.107059    0.000006
      9          1           0        2.135254   -0.000014   -0.000004
     10          1           0        0.768871   -2.107069    0.000004
 ---------------------------------------------------------------------
 Rotational constants (GHZ):      9.2410764      8.9916921      4.5573394
 Leave Link  202 at Thu Mar 19 18:16:24 2026, MaxMem=   536870912 cpu:         0.0
 (Enter C:\G09W\l301.exe)
 Standard basis: 6-31G(d) (6D, 7F)
 Ernie: Thresh=  0.10000D-02 Tol=  0.10000D-05 Strict=F.
 There are    85 symmetry adapted cartesian basis functions of A   symmetry.
 There are    85 symmetry adapted basis functions of A   symmetry.
    85 basis functions,   160 primitive gaussians,    85 cartesian basis functions
    18 alpha electrons       18 beta electrons
       nuclear repulsion energy       161.0993914812 Hartrees.
 IExCor=  402 DFT=T Ex+Corr=B3LYP ExCW=0 ScaHFX=  0.200000
 ScaDFX=  0.800000  0.720000  1.000000  0.810000 ScalE2=  1.000000  1.000000
 IRadAn=      0 IRanWt=     -1 IRanGd=            0 ICorTp=0 IEmpDi=  4
 NAtoms=   10 NActive=   10 NUniq=   10 SFac= 1.00D+00 NAtFMM=   60 NAOKFM=F Big=F
 Integral buffers will be    131072 words long.
 Raffenetti 2 integral format.
 Two-electron integral symmetry is turned on.
 Leave Link  301 at Thu Mar 19 18:16:24 2026, MaxMem=   536870912 cpu:         0.0
 (Enter C:\G09W\l302.exe)
 NPDir=0 NMtPBC=     1 NCelOv=     1 NCel=       1 NClECP=     1 NCelD=      1
         NCelK=      1 NCelE2=     1 NClLst=     1 CellRange=     0.0.
 One-electron integrals computed using PRISM.
 NBasis=    85 RedAO= T EigKep=  1.28D-03  NBF=    85
 NBsUse=    85 1.00D-06 EigRej= -1.00D+00 NBFU=    85
 Precomputing XC quadrature grid using
 IXCGrd= 4 IRadAn=           0 IRanWt=          -1 IRanGd=           0 AccXCQ= 0.00D+00.
 Generated NRdTot=       0 NPtTot=           0 NUsed=           0 NTot=          32
 NSgBfM=    85    85    85    85    85 MxSgAt=    10 MxSgA2=    10.
 Leave Link  302 at Thu Mar 19 18:16:25 2026, MaxMem=   536870912 cpu:         0.0
 (Enter C:\G09W\l303.exe)
 DipDrv:  MaxL=1.
 Leave Link  303 at Thu Mar 19 18:16:25 2026, MaxMem=   536870912 cpu:         0.0
 (Enter C:\G09W\l401.exe)
 ExpMin= 1.61D-01 ExpMax= 4.17D+03 ExpMxC= 6.27D+02 IAcc=1 IRadAn=         1 AccDes= 0.00D+00
 Harris functional with IExCor=  402 and IRadAn=       1 diagonalized for initial guess.
 HarFok:  IExCor=  402 AccDes= 0.00D+00 IRadAn=         1 IDoV= 1 UseB2=F ITyADJ=14
 ICtDFT=  3500011 ScaDFX=  1.000000  1.000000  1.000000  1.000000
 FoFCou: FMM=F IPFlag=           0 FMFlag=      100000 FMFlg1=           0
         NFxFlg=           0 DoJE=T BraDBF=F KetDBF=T FulRan=T
         wScrn=  0.000000 ICntrl=     500 IOpCl=  0 I1Cent=   200000004 NGrid=           0
         NMat0=    1 NMatS0=      1 NMatT0=    0 NMatD0=    1 NMtDS0=    0 NMtDT0=    0
 Petite list used in FoFCou.
 Harris En= -210.184279517719    
 JPrj=0 DoOrth=F DoCkMO=F.
 Leave Link  401 at Thu Mar 19 18:16:26 2026, MaxMem=   536870912 cpu:         0.0
 (Enter C:\G09W\l502.exe)
 Closed shell SCF:
 Using DIIS extrapolation, IDIIS=  1040.
 Integral symmetry usage will be decided dynamically.
 Keep R1 ints in memory in canonical form, NReq=7629212.
 IVT=       41380 IEndB=       41380 NGot=   536870912 MDV=   530148193
 LenX=   530148193 LenY=   530140527
 Requested convergence on RMS density matrix=1.00D-08 within 128 cycles.
 Requested convergence on MAX density matrix=1.00D-06.
 Requested convergence on             energy=1.00D-06.
 No special actions if energy rises.
 FoFCou: FMM=F IPFlag=           0 FMFlag=           0 FMFlg1=           0
         NFxFlg=           0 DoJE=F BraDBF=F KetDBF=F FulRan=T
         wScrn=  0.000000 ICntrl=     600 IOpCl=  0 I1Cent=           0 NGrid=           0
         NMat0=    1 NMatS0=   3655 NMatT0=    0 NMatD0=    1 NMtDS0=    0 NMtDT0=    0
 Symmetry not used in FoFCou.
 Integral accuracy reduced to 1.0D-05 until final iterations.

 Cycle   1  Pass 0  IDiag  1:
 E= -210.014187033166    
 DIIS: error= 4.55D-02 at cycle   1 NSaved=   1.
 NSaved= 1 IEnMin= 1 EnMin= -210.014187033166     IErMin= 1 ErrMin= 4.55D-02
 ErrMax= 4.55D-02  0.00D+00 EMaxC= 1.00D-01 BMatC= 1.37D-01 BMatP= 1.37D-01
 IDIUse=3 WtCom= 5.45D-01 WtEn= 4.55D-01
 Coeff-Com:  0.100D+01
 Coeff-En:   0.100D+01
 Coeff:      0.100D+01
 Gap=     0.223 Goal=   None    Shift=    0.000
 GapD=    0.223 DampG=1.000 DampE=0.500 DampFc=0.5000 IDamp=-1.
 Damping current iteration by 5.00D-01
 RMSDP=1.13D-02 MaxDP=1.41D-01              OVMax= 2.26D-01

 Cycle   2  Pass 0  IDiag  1:
 E= -210.076299078622     Delta-E=       -0.062112045455 Rises=F Damp=T
 DIIS: error= 9.37D-03 at cycle   2 NSaved=   2.
 NSaved= 2 IEnMin= 2 EnMin= -210.076299078622     IErMin= 2 ErrMin= 9.37D-03
 ErrMax= 9.37D-03  0.00D+00 EMaxC= 1.00D-01 BMatC= 9.97D-03 BMatP= 1.37D-01
 IDIUse=3 WtCom= 9.06D-01 WtEn= 9.37D-02
 Coeff-Com:  0.998D-01 0.900D+00
 Coeff-En:   0.178D+00 0.822D+00
 Coeff:      0.107D+00 0.893D+00
 Gap=     0.275 Goal=   None    Shift=    0.000
 RMSDP=3.12D-03 MaxDP=4.12D-02 DE=-6.21D-02 OVMax= 1.66D-01

 Cycle   3  Pass 0  IDiag  1:
 E= -210.157864424123     Delta-E=       -0.081565345502 Rises=F Damp=F
 DIIS: error= 1.08D-02 at cycle   3 NSaved=   3.
 NSaved= 3 IEnMin= 3 EnMin= -210.157864424123     IErMin= 2 ErrMin= 9.37D-03
 ErrMax= 1.08D-02  0.00D+00 EMaxC= 1.00D-01 BMatC= 7.68D-03 BMatP= 9.97D-03
 IDIUse=3 WtCom= 8.92D-01 WtEn= 1.08D-01
 Coeff-Com:  0.115D-01 0.460D+00 0.529D+00
 Coeff-En:   0.000D+00 0.000D+00 0.100D+01
 Coeff:      0.103D-01 0.410D+00 0.580D+00
 Gap=     0.249 Goal=   None    Shift=    0.000
 RMSDP=1.52D-03 MaxDP=2.74D-02 DE=-8.16D-02 OVMax= 5.42D-02

 Cycle   4  Pass 0  IDiag  1:
 E= -210.163056257675     Delta-E=       -0.005191833552 Rises=F Damp=F
 DIIS: error= 6.10D-03 at cycle   4 NSaved=   4.
 NSaved= 4 IEnMin= 4 EnMin= -210.163056257675     IErMin= 4 ErrMin= 6.10D-03
 ErrMax= 6.10D-03  0.00D+00 EMaxC= 1.00D-01 BMatC= 2.66D-03 BMatP= 7.68D-03
 IDIUse=3 WtCom= 9.39D-01 WtEn= 6.10D-02
 Coeff-Com: -0.636D-02 0.849D-01 0.377D+00 0.545D+00
 Coeff-En:   0.000D+00 0.000D+00 0.291D+00 0.709D+00
 Coeff:     -0.597D-02 0.798D-01 0.372D+00 0.555D+00
 Gap=     0.253 Goal=   None    Shift=    0.000
 RMSDP=6.24D-04 MaxDP=1.18D-02 DE=-5.19D-03 OVMax= 2.18D-02

 Cycle   5  Pass 0  IDiag  1:
 E= -210.165659743264     Delta-E=       -0.002603485589 Rises=F Damp=F
 DIIS: error= 7.41D-04 at cycle   5 NSaved=   5.
 NSaved= 5 IEnMin= 5 EnMin= -210.165659743264     IErMin= 5 ErrMin= 7.41D-04
 ErrMax= 7.41D-04  0.00D+00 EMaxC= 1.00D-01 BMatC= 3.73D-05 BMatP= 2.66D-03
 IDIUse=3 WtCom= 9.93D-01 WtEn= 7.41D-03
 Coeff-Com: -0.279D-02 0.113D-01 0.110D+00 0.209D+00 0.672D+00
 Coeff-En:   0.000D+00 0.000D+00 0.000D+00 0.000D+00 0.100D+01
 Coeff:     -0.277D-02 0.112D-01 0.109D+00 0.208D+00 0.674D+00
 Gap=     0.252 Goal=   None    Shift=    0.000
 RMSDP=7.41D-05 MaxDP=1.99D-03 DE=-2.60D-03 OVMax= 2.34D-03

 Cycle   6  Pass 0  IDiag  1:
 E= -210.165684488236     Delta-E=       -0.000024744972 Rises=F Damp=F
 DIIS: error= 3.38D-04 at cycle   6 NSaved=   6.
 NSaved= 6 IEnMin= 6 EnMin= -210.165684488236     IErMin= 6 ErrMin= 3.38D-04
 ErrMax= 3.38D-04  0.00D+00 EMaxC= 1.00D-01 BMatC= 8.69D-06 BMatP= 3.73D-05
 IDIUse=3 WtCom= 9.97D-01 WtEn= 3.38D-03
 Coeff-Com: -0.130D-02 0.402D-03 0.382D-01 0.841D-01 0.394D+00 0.484D+00
 Coeff-En:   0.000D+00 0.000D+00 0.000D+00 0.000D+00 0.139D+00 0.861D+00
 Coeff:     -0.129D-02 0.401D-03 0.381D-01 0.838D-01 0.394D+00 0.485D+00
 Gap=     0.253 Goal=   None    Shift=    0.000
 RMSDP=2.46D-05 MaxDP=6.24D-04 DE=-2.47D-05 OVMax= 8.19D-04

 Cycle   7  Pass 0  IDiag  1:
 E= -210.165691738743     Delta-E=       -0.000007250507 Rises=F Damp=F
 DIIS: error= 1.82D-05 at cycle   7 NSaved=   7.
 NSaved= 7 IEnMin= 7 EnMin= -210.165691738743     IErMin= 7 ErrMin= 1.82D-05
 ErrMax= 1.82D-05  0.00D+00 EMaxC= 1.00D-01 BMatC= 2.10D-08 BMatP= 8.69D-06
 IDIUse=1 WtCom= 1.00D+00 WtEn= 0.00D+00
 Coeff-Com:  0.638D-04-0.476D-03-0.121D-03-0.123D-03 0.173D-01 0.523D-01
 Coeff-Com:  0.931D+00
 Coeff:      0.638D-04-0.476D-03-0.121D-03-0.123D-03 0.173D-01 0.523D-01
 Coeff:      0.931D+00
 Gap=     0.253 Goal=   None    Shift=    0.000
 RMSDP=2.48D-06 MaxDP=2.16D-05 DE=-7.25D-06 OVMax= 4.81D-05

 Initial convergence to 1.0D-05 achieved.  Increase integral accuracy.
 Cycle   8  Pass 1  IDiag  1:
 E= -210.165712579244     Delta-E=       -0.000020840501 Rises=F Damp=F
 DIIS: error= 1.75D-05 at cycle   1 NSaved=   1.
 NSaved= 1 IEnMin= 1 EnMin= -210.165712579244     IErMin= 1 ErrMin= 1.75D-05
 ErrMax= 1.75D-05  0.00D+00 EMaxC= 1.00D-01 BMatC= 1.23D-08 BMatP= 1.23D-08
 IDIUse=1 WtCom= 1.00D+00 WtEn= 0.00D+00
 Coeff-Com:  0.100D+01
 Coeff:      0.100D+01
 Gap=     0.253 Goal=   None    Shift=    0.000
 RMSDP=2.48D-06 MaxDP=2.16D-05 DE=-2.08D-05 OVMax= 2.52D-05

 Cycle   9  Pass 1  IDiag  1:
 E= -210.165712591459     Delta-E=       -0.000000012215 Rises=F Damp=F
 DIIS: error= 1.99D-06 at cycle   2 NSaved=   2.
 NSaved= 2 IEnMin= 2 EnMin= -210.165712591459     IErMin= 2 ErrMin= 1.99D-06
 ErrMax= 1.99D-06  0.00D+00 EMaxC= 1.00D-01 BMatC= 3.47D-10 BMatP= 1.23D-08
 IDIUse=1 WtCom= 1.00D+00 WtEn= 0.00D+00
 Coeff-Com:  0.101D-01 0.990D+00
 Coeff:      0.101D-01 0.990D+00
 Gap=     0.253 Goal=   None    Shift=    0.000
 RMSDP=4.11D-07 MaxDP=8.28D-06 DE=-1.22D-08 OVMax= 1.65D-05

 Cycle  10  Pass 1  IDiag  1:
 E= -210.165712591094     Delta-E=        0.000000000365 Rises=F Damp=F
 DIIS: error= 3.38D-06 at cycle   3 NSaved=   3.
 NSaved= 3 IEnMin= 2 EnMin= -210.165712591459     IErMin= 2 ErrMin= 1.99D-06
 ErrMax= 3.38D-06  0.00D+00 EMaxC= 1.00D-01 BMatC= 6.88D-10 BMatP= 3.47D-10
 IDIUse=1 WtCom= 1.00D+00 WtEn= 0.00D+00
 Coeff-Com: -0.193D-01 0.600D+00 0.420D+00
 Coeff:     -0.193D-01 0.600D+00 0.420D+00
 Gap=     0.253 Goal=   None    Shift=    0.000
 RMSDP=3.32D-07 MaxDP=4.55D-06 DE= 3.65D-10 OVMax= 1.19D-05

 Cycle  11  Pass 1  IDiag  1:
 E= -210.165712591761     Delta-E=       -0.000000000667 Rises=F Damp=F
 DIIS: error= 7.25D-07 at cycle   4 NSaved=   4.
 NSaved= 4 IEnMin= 4 EnMin= -210.165712591761     IErMin= 4 ErrMin= 7.25D-07
 ErrMax= 7.25D-07  0.00D+00 EMaxC= 1.00D-01 BMatC= 2.29D-11 BMatP= 3.47D-10
 IDIUse=1 WtCom= 1.00D+00 WtEn= 0.00D+00
 Coeff-Com: -0.936D-02 0.244D+00 0.226D+00 0.540D+00
 Coeff:     -0.936D-02 0.244D+00 0.226D+00 0.540D+00
 Gap=     0.253 Goal=   None    Shift=    0.000
 RMSDP=7.70D-08 MaxDP=1.29D-06 DE=-6.67D-10 OVMax= 2.60D-06

 Cycle  12  Pass 1  IDiag  1:
 E= -210.165712591788     Delta-E=       -0.000000000027 Rises=F Damp=F
 DIIS: error= 2.10D-07 at cycle   5 NSaved=   5.
 NSaved= 5 IEnMin= 5 EnMin= -210.165712591788     IErMin= 5 ErrMin= 2.10D-07
 ErrMax= 2.10D-07  0.00D+00 EMaxC= 1.00D-01 BMatC= 2.63D-12 BMatP= 2.29D-11
 IDIUse=1 WtCom= 1.00D+00 WtEn= 0.00D+00
 Coeff-Com: -0.321D-02 0.624D-01 0.780D-01 0.308D+00 0.555D+00
 Coeff:     -0.321D-02 0.624D-01 0.780D-01 0.308D+00 0.555D+00
 Gap=     0.253 Goal=   None    Shift=    0.000
 RMSDP=1.43D-08 MaxDP=4.29D-07 DE=-2.71D-11 OVMax= 4.58D-07

 Cycle  13  Pass 1  IDiag  1:
 E= -210.165712591790     Delta-E=       -0.000000000003 Rises=F Damp=F
 DIIS: error= 2.93D-08 at cycle   6 NSaved=   6.
 NSaved= 6 IEnMin= 6 EnMin= -210.165712591790     IErMin= 6 ErrMin= 2.93D-08
 ErrMax= 2.93D-08  0.00D+00 EMaxC= 1.00D-01 BMatC= 8.47D-14 BMatP= 2.63D-12
 IDIUse=1 WtCom= 1.00D+00 WtEn= 0.00D+00
 Coeff-Com: -0.557D-03 0.724D-02 0.130D-01 0.926D-01 0.207D+00 0.680D+00
 Coeff:     -0.557D-03 0.724D-02 0.130D-01 0.926D-01 0.207D+00 0.680D+00
 Gap=     0.253 Goal=   None    Shift=    0.000
 RMSDP=4.82D-09 MaxDP=6.24D-08 DE=-2.56D-12 OVMax= 8.37D-08

 SCF Done:  E(RB3LYP) =  -210.165712592     A.U. after   13 cycles
            NFock= 13  Conv=0.48D-08     -V/T= 2.0097
 KE= 2.081504695433D+02 PE=-8.097364782174D+02 EE= 2.303209046011D+02
 Leave Link  502 at Thu Mar 19 18:16:34 2026, MaxMem=   536870912 cpu:         8.0
 (Enter C:\G09W\l601.exe)
 Copying SCF densities to generalized density rwf, IOpCl= 0 IROHF=0.

 **********************************************************************

            Population analysis using the SCF density.

 **********************************************************************

 Orbital symmetries:
       Occupied  (A) (A) (A) (A) (A) (A) (A) (A) (A) (A) (A) (A)
                 (A) (A) (A) (A) (A) (A)
       Virtual   (A) (A) (A) (A) (A) (A) (A) (A) (A) (A) (A) (A)
                 (A) (A) (A) (A) (A) (A) (A) (A) (A) (A) (A) (A)
                 (A) (A) (A) (A) (A) (A) (A) (A) (A) (A) (A) (A)
                 (A) (A) (A) (A) (A) (A) (A) (A) (A) (A) (A) (A)
                 (A) (A) (A) (A) (A) (A) (A) (A) (A) (A) (A) (A)
                 (A) (A) (A) (A) (A) (A) (A)
 The electronic state is 1-A.
 Alpha  occ. eigenvalues --  -14.37410 -10.19571 -10.19570 -10.15933 -10.15885
 Alpha  occ. eigenvalues --   -0.96644  -0.76276  -0.70923  -0.58262  -0.55508
 Alpha  occ. eigenvalues --   -0.53512  -0.42276  -0.41346  -0.39532  -0.37914
 Alpha  occ. eigenvalues --   -0.36525  -0.23361  -0.20058
 Alpha virt. eigenvalues --    0.05202   0.07748   0.09861   0.14172   0.16536
 Alpha virt. eigenvalues --    0.17246   0.18401   0.24447   0.24725   0.34141
 Alpha virt. eigenvalues --    0.37324   0.45927   0.54409   0.55780   0.58295
 Alpha virt. eigenvalues --    0.60569   0.61359   0.61876   0.63331   0.63778
 Alpha virt. eigenvalues --    0.65443   0.69765   0.77692   0.81857   0.83191
 Alpha virt. eigenvalues --    0.86209   0.86353   0.92024   0.93313   0.93821
 Alpha virt. eigenvalues --    0.99163   1.14806   1.16654   1.25779   1.29504
 Alpha virt. eigenvalues --    1.34800   1.37497   1.40145   1.50159   1.51082
 Alpha virt. eigenvalues --    1.55675   1.55947   1.79252   1.89010   2.00398
 Alpha virt. eigenvalues --    2.02316   2.05852   2.11404   2.22305   2.24718
 Alpha virt. eigenvalues --    2.26537   2.27211   2.34110   2.34783   2.56897
 Alpha virt. eigenvalues --    2.60494   2.64296   2.70085   2.70307   2.97384
 Alpha virt. eigenvalues --    3.01950   3.02509   3.91537   4.13293   4.14208
 Alpha virt. eigenvalues --    4.34826   4.47884
          Condensed to atoms (all electrons):
               1          2          3          4          5          6
     1  C    4.862046   0.529949  -0.038474  -0.062296   0.581988   0.372107
     2  C    0.529949   4.862047   0.581987  -0.062296  -0.038474  -0.044096
     3  C   -0.038474   0.581987   4.884732   0.373733  -0.126084   0.007197
     4  N   -0.062296  -0.062296   0.373733   6.694851   0.373733   0.005044
     5  C    0.581988  -0.038474  -0.126084   0.373733   4.884732  -0.051984
     6  H    0.372107  -0.044096   0.007197   0.005044  -0.051984   0.597366
     7  H   -0.044096   0.372107  -0.051984   0.005044   0.007197  -0.003643
     8  H    0.004246  -0.038604   0.370955  -0.052605   0.006543  -0.000149
     9  H    0.006249   0.006249  -0.032474   0.322377  -0.032474  -0.000139
    10  H   -0.038604   0.004246   0.006543  -0.052605   0.370955  -0.002002
               7          8          9         10
     1  C   -0.044096   0.004246   0.006249  -0.038604
     2  C    0.372107  -0.038604   0.006249   0.004246
     3  C   -0.051984   0.370955  -0.032474   0.006543
     4  N    0.005044  -0.052605   0.322377  -0.052605
     5  C    0.007197   0.006543  -0.032474   0.370955
     6  H   -0.003643  -0.000149  -0.000139  -0.002002
     7  H    0.597366  -0.002002  -0.000139  -0.000149
     8  H   -0.002002   0.577978  -0.002824  -0.000134
     9  H   -0.000139  -0.002824   0.406316  -0.002824
    10  H   -0.000149  -0.000134  -0.002824   0.577978
 Mulliken charges:
               1
     1  C   -0.173114
     2  C   -0.173115
     3  C    0.023868
     4  N   -0.544981
     5  C    0.023869
     6  H    0.120299
     7  H    0.120299
     8  H    0.136597
     9  H    0.329682
    10  H    0.136597
 Sum of Mulliken charges =   0.00000
 Mulliken charges with hydrogens summed into heavy atoms:
               1
     1  C   -0.052816
     2  C   -0.052816
     3  C    0.160465
     4  N   -0.215299
     5  C    0.160465
 Electronic spatial extent (au):  <R**2>=            303.8622
 Charge=              0.0000 electrons
 Dipole moment (field-independent basis, Debye):
    X=              1.9254    Y=              0.0000    Z=              0.0000  Tot=              1.9254
 Quadrupole moment (field-independent basis, Debye-Ang):
   XX=            -23.1175   YY=            -26.5054   ZZ=            -32.8489
   XY=              0.0000   XZ=              0.0000   YZ=              0.0000
 Traceless Quadrupole moment (field-independent basis, Debye-Ang):
   XX=              4.3731   YY=              0.9852   ZZ=             -5.3583
   XY=              0.0000   XZ=              0.0000   YZ=              0.0000
 Octapole moment (field-independent basis, Debye-Ang**2):
  XXX=             12.6583  YYY=             -0.0001  ZZZ=              0.0000  XYY=              2.5605
  XXY=              0.0000  XXZ=              0.0000  XZZ=              1.9477  YZZ=              0.0000
  YYZ=              0.0000  XYZ=              0.0000
 Hexadecapole moment (field-independent basis, Debye-Ang**3):
 XXXX=           -147.4707 YYYY=           -173.5574 ZZZZ=            -33.3655 XXXY=             -0.0001
 XXXZ=             -0.0001 YYYX=              0.0000 YYYZ=              0.0000 ZZZX=              0.0000
 ZZZY=              0.0000 XXYY=            -55.2452 XXZZ=            -39.1065 YYZZ=            -41.2859
 XXYZ=              0.0000 YYXZ=              0.0000 ZZXY=              0.0000
 N-N= 1.610993914812D+02 E-N=-8.097364823392D+02  KE= 2.081504695433D+02
 No NMR shielding tensors so no spin-rotation constants.
 Leave Link  601 at Thu Mar 19 18:16:35 2026, MaxMem=   536870912 cpu:         0.0
 (Enter C:\G09W\l701.exe)
 Compute integral first derivatives.
 ... and contract with generalized density number  0.
 Leave Link  701 at Thu Mar 19 18:16:35 2026, MaxMem=   536870912 cpu:         0.0
 (Enter C:\G09W\l702.exe)
 L702 exits ... SP integral derivatives will be done elsewhere.
 Leave Link  702 at Thu Mar 19 18:16:36 2026, MaxMem=   536870912 cpu:         0.0
 (Enter C:\G09W\l703.exe)
 Compute integral first derivatives, UseDBF=F ICtDFT=           0.
 Integral derivatives from FoFJK, PRISM(SPDF).
 Calling FoFJK, ICntrl=      2127 FMM=F ISym2X=0 I1Cent= 0 IOpClX= 0 NMat=1 NMatS=1 NMatT=0.
 FoFJK:  IHMeth= 1 ICntrl=    2127 DoSepK=F KAlg= 0 I1Cent=   0 FoldK=F
 IRaf=         0 NMat=   1 IRICut=       1 DoRegI=T DoRafI=F ISym2E= 0.
 FoFCou: FMM=F IPFlag=           0 FMFlag=      100000 FMFlg1=         800
         NFxFlg=           0 DoJE=F BraDBF=F KetDBF=F FulRan=T
         wScrn=  0.000000 ICntrl=    2127 IOpCl=  0 I1Cent=           0 NGrid=           0
         NMat0=    1 NMatS0=      1 NMatT0=    0 NMatD0=    1 NMtDS0=    0 NMtDT0=    0
 Symmetry not used in FoFCou.
 Leave Link  703 at Thu Mar 19 18:16:37 2026, MaxMem=   536870912 cpu:         1.0
 (Enter C:\G09W\l716.exe)
 Dipole        = 7.57502015D-01-5.26019401D-06 1.10201772D-06
 ***** Axes restored to original set *****
 -------------------------------------------------------------------
 Center     Atomic                   Forces (Hartrees/Bohr)
 Number     Number              X              Y              Z
 -------------------------------------------------------------------
      1        6          -0.002890133    0.005885508    0.000298514
      2        6           0.005101812   -0.004125659   -0.000173124
      3        6           0.003703416   -0.007068065   -0.000355907
      4        7          -0.003204021   -0.002549532   -0.000180500
      5        6          -0.006076377    0.005180680    0.000220981
      6        1          -0.000317001   -0.000308377   -0.000020949
      7        1          -0.000371527   -0.000239839   -0.000017936
      8        1           0.000359603    0.000747316    0.000046115
      9        1           0.002884222    0.002294930    0.000163185
     10        1           0.000810005    0.000183038    0.000019622
 -------------------------------------------------------------------
 Cartesian Forces:  Max     0.007068065 RMS     0.002863292
 Leave Link  716 at Thu Mar 19 18:16:37 2026, MaxMem=   536870912 cpu:         0.0
 (Enter C:\G09W\l103.exe)

 GradGradGradGradGradGradGradGradGradGradGradGradGradGradGradGradGradGrad
 Berny optimization.
 FormGI is forming the generalized inverse of G from B-inverse, IUseBI=4.
 Internal  Forces:  Max     0.008174525 RMS     0.001881619
 Search for a local minimum.
 Step number   1 out of a maximum of   55
 All quantities printed in internal units (Hartrees-Bohrs-Radians)
 RMS Force = .18816D-02 SwitMx=.10000D-02 MixMth= 1
 Mixed Optimization -- RFO/linear search
 Second derivative matrix not updated -- first step.
 ITU=  0
     Eigenvalues ---    0.02049   0.02081   0.02111   0.02165   0.02228
     Eigenvalues ---    0.02264   0.02293   0.16000   0.16000   0.16000
     Eigenvalues ---    0.16000   0.16000   0.22000   0.22000   0.35717
     Eigenvalues ---    0.35717   0.35792   0.35792   0.39947   0.43502
     Eigenvalues ---    0.45652   0.47797   0.49846   0.50571
 RFO step:  Lambda=-4.16148897D-04 EMin= 2.04910030D-02
 Linear search not attempted -- first point.
 Iteration  1 RMS(Cart)=  0.00633404 RMS(Int)=  0.00001667
 Iteration  2 RMS(Cart)=  0.00001799 RMS(Int)=  0.00000144
 Iteration  3 RMS(Cart)=  0.00000000 RMS(Int)=  0.00000144
 ITry= 1 IFail=0 DXMaxC= 1.57D-02 DCOld= 1.00D+10 DXMaxT= 3.00D-01 DXLimC= 3.00D+00 Rises=F
 Variable       Old X    -DE/DX   Delta X   Delta X   Delta X     New X
                                 (Linear)    (Quad)   (Total)
    R1        2.67484   0.00817   0.00000   0.01895   0.01895   2.69378
    R2        2.60230   0.00147   0.00000   0.00296   0.00296   2.60527
    R3        2.04526  -0.00038   0.00000  -0.00106  -0.00106   2.04420
    R4        2.60231   0.00147   0.00000   0.00296   0.00296   2.60527
    R5        2.04526  -0.00038   0.00000  -0.00106  -0.00106   2.04420
    R6        2.58999   0.00475   0.00000   0.00930   0.00931   2.59930
    R7        2.04408  -0.00063   0.00000  -0.00177  -0.00177   2.04231
    R8        2.58999   0.00475   0.00000   0.00930   0.00931   2.59930
    R9        1.91226  -0.00369   0.00000  -0.00807  -0.00807   1.90419
   R10        2.04408  -0.00063   0.00000  -0.00177  -0.00177   2.04231
    A1        1.87340   0.00062   0.00000   0.00287   0.00286   1.87627
    A2        2.21462  -0.00008   0.00000   0.00003   0.00003   2.21465
    A3        2.19517  -0.00054   0.00000  -0.00290  -0.00289   2.19227
    A4        1.87340   0.00062   0.00000   0.00287   0.00286   1.87627
    A5        2.21461  -0.00008   0.00000   0.00003   0.00003   2.21465
    A6        2.19517  -0.00054   0.00000  -0.00290  -0.00289   2.19227
    A7        1.88486  -0.00208   0.00000  -0.00947  -0.00947   1.87539
    A8        2.29049   0.00049   0.00000   0.00131   0.00131   2.29180
    A9        2.10783   0.00159   0.00000   0.00816   0.00816   2.11599
   A10        1.90824   0.00293   0.00000   0.01321   0.01321   1.92145
   A11        2.18747  -0.00146   0.00000  -0.00660  -0.00661   2.18087
   A12        2.18747  -0.00146   0.00000  -0.00660  -0.00661   2.18087
   A13        1.88486  -0.00208   0.00000  -0.00947  -0.00947   1.87539
   A14        2.29049   0.00049   0.00000   0.00131   0.00131   2.29180
   A15        2.10783   0.00159   0.00000   0.00816   0.00816   2.11599
    D1        0.00000   0.00000   0.00000   0.00000   0.00000   0.00000
    D2       -3.14159   0.00000   0.00000  -0.00001  -0.00001   3.14159
    D3       -3.14159   0.00000   0.00000   0.00000   0.00000  -3.14159
    D4        0.00001   0.00000   0.00000   0.00000   0.00000   0.00000
    D5        0.00000   0.00000   0.00000   0.00001   0.00001   0.00001
    D6        3.14159   0.00000   0.00000   0.00000   0.00000  -3.14159
    D7        3.14159   0.00000   0.00000   0.00001   0.00001  -3.14159
    D8        0.00000   0.00000   0.00000   0.00000   0.00000   0.00000
    D9        0.00000   0.00000   0.00000  -0.00001  -0.00001   0.00000
   D10       -3.14159   0.00000   0.00000   0.00000   0.00000  -3.14159
   D11        3.14159   0.00000   0.00000   0.00000   0.00000   3.14159
   D12        0.00000   0.00000   0.00000   0.00000   0.00000   0.00000
   D13       -0.00001   0.00000   0.00000   0.00001   0.00001   0.00001
   D14        3.14159   0.00000   0.00000   0.00000   0.00000  -3.14159
   D15        3.14158   0.00000   0.00000   0.00001   0.00001  -3.14159
   D16       -0.00001   0.00000   0.00000   0.00000   0.00000   0.00000
   D17        0.00001   0.00000   0.00000  -0.00002  -0.00002  -0.00001
   D18       -3.14159   0.00000   0.00000  -0.00001  -0.00001   3.14159
   D19       -3.14159   0.00000   0.00000  -0.00001  -0.00001   3.14159
   D20        0.00000   0.00000   0.00000   0.00000   0.00000   0.00000
         Item               Value     Threshold  Converged?
 Maximum Force            0.008175     0.000450     NO 
 RMS     Force            0.001882     0.000300     NO 
 Maximum Displacement     0.015715     0.001800     NO 
 RMS     Displacement     0.006338     0.001200     NO 
 Predicted change in Energy=-2.083319D-04
 Lowest energy point so far.  Saving SCF results.
 GradGradGradGradGradGradGradGradGradGradGradGradGradGradGradGradGradGrad

 Leave Link  103 at Thu Mar 19 18:16:38 2026, MaxMem=   536870912 cpu:         0.0
 (Enter C:\G09W\l202.exe)
                          Input orientation:                          
 ---------------------------------------------------------------------
 Center     Atomic      Atomic             Coordinates (Angstroms)
 Number     Number       Type             X           Y           Z
 ---------------------------------------------------------------------
      1          6           0        0.307228    1.154712    0.068718
      2          6           0        1.196029    0.041473    0.016254
      3          6           0        0.426706   -1.100206   -0.057105
      4          7           0       -0.892257   -0.709995   -0.050431
      5          6           0       -0.979129    0.660627    0.025875
      6          1           0        0.578686    2.199996    0.130844
      7          1           0        2.277232    0.072540    0.030586
      8          1           0        0.702162   -2.143773   -0.112772
      9          1           0       -1.679972   -1.336802   -0.094955
     10          1           0       -1.936685    1.161428    0.042985
 ---------------------------------------------------------------------
                    Distance matrix (angstroms):
                    1          2          3          4          5
     1  C    0.000000
     2  C    1.425489   0.000000
     3  C    2.261583   1.378648   0.000000
     4  N    2.220381   2.220381   1.375491   0.000000
     5  C    1.378648   2.261584   2.254727   1.375490   0.000000
     6  H    1.081743   2.247991   3.309041   3.265667   2.192593
     7  H    2.247991   1.081743   2.192594   3.265668   3.309041
     8  H    3.326998   2.244071   1.080744   2.145176   3.272709
     9  H    3.191143   3.191143   2.120260   1.007652   2.120260
    10  H    2.244071   3.326998   3.272709   2.145176   1.080744
                    6          7          8          9         10
     6  H    0.000000
     7  H    2.724183   0.000000
     8  H    4.352347   2.722763   0.000000
     9  H    4.202554   4.202554   2.515170   0.000000
    10  H    2.722763   4.352347   4.232273   2.515170   0.000000
 Stoichiometry    C4H5N
 Framework group  C1[X(C4H5N)]
 Deg. of freedom    24
 Full point group                 C1      NOp   1
 RotChk:  IX=1 Diff= 1.29D-05
 Largest Abelian subgroup         C1      NOp   1
 Largest concise Abelian subgroup C1      NOp   1
                         Standard orientation:                         
 ---------------------------------------------------------------------
 Center     Atomic      Atomic             Coordinates (Angstroms)
 Number     Number       Type             X           Y           Z
 ---------------------------------------------------------------------
      1          6           0       -0.982787   -0.712748    0.000001
      2          6           0       -0.982791    0.712742    0.000000
      3          6           0        0.332031    1.127364   -0.000002
      4          7           0        1.120087    0.000003    0.000003
      5          6           0        0.332038   -1.127362   -0.000002
      6          1           0       -1.847954   -1.362097    0.000001
      7          1           0       -1.847962    1.362086    0.000001
      8          1           0        0.768303    2.116139   -0.000002
      9          1           0        2.127739    0.000006    0.000003
     10          1           0        0.768316   -2.116134   -0.000005
 ---------------------------------------------------------------------
 Rotational constants (GHZ):      9.1123894      9.0196389      4.5328885
 Leave Link  202 at Thu Mar 19 18:16:38 2026, MaxMem=   536870912 cpu:         0.0
 (Enter C:\G09W\l301.exe)
 Standard basis: 6-31G(d) (6D, 7F)
 Ernie: Thresh=  0.10000D-02 Tol=  0.10000D-05 Strict=F.
 There are    85 symmetry adapted cartesian basis functions of A   symmetry.
 There are    85 symmetry adapted basis functions of A   symmetry.
    85 basis functions,   160 primitive gaussians,    85 cartesian basis functions
    18 alpha electrons       18 beta electrons
       nuclear repulsion energy       160.7039509750 Hartrees.
 IExCor=  402 DFT=T Ex+Corr=B3LYP ExCW=0 ScaHFX=  0.200000
 ScaDFX=  0.800000  0.720000  1.000000  0.810000 ScalE2=  1.000000  1.000000
 IRadAn=      0 IRanWt=     -1 IRanGd=            0 ICorTp=0 IEmpDi=  4
 NAtoms=   10 NActive=   10 NUniq=   10 SFac= 1.00D+00 NAtFMM=   60 NAOKFM=F Big=F
 Integral buffers will be    131072 words long.
 Raffenetti 2 integral format.
 Two-electron integral symmetry is turned on.
 Leave Link  301 at Thu Mar 19 18:16:39 2026, MaxMem=   536870912 cpu:         0.0
 (Enter C:\G09W\l302.exe)
 NPDir=0 NMtPBC=     1 NCelOv=     1 NCel=       1 NClECP=     1 NCelD=      1
         NCelK=      1 NCelE2=     1 NClLst=     1 CellRange=     0.0.
 One-electron integrals computed using PRISM.
 NBasis=    85 RedAO= T EigKep=  1.32D-03  NBF=    85
 NBsUse=    85 1.00D-06 EigRej= -1.00D+00 NBFU=    85
 Precomputing XC quadrature grid using
 IXCGrd= 4 IRadAn=           0 IRanWt=          -1 IRanGd=           0 AccXCQ= 0.00D+00.
 Generated NRdTot=       0 NPtTot=           0 NUsed=           0 NTot=          32
 NSgBfM=    85    85    85    85    85 MxSgAt=    10 MxSgA2=    10.
 Leave Link  302 at Thu Mar 19 18:16:39 2026, MaxMem=   536870912 cpu:         0.0
 (Enter C:\G09W\l303.exe)
 DipDrv:  MaxL=1.
 Leave Link  303 at Thu Mar 19 18:16:39 2026, MaxMem=   536870912 cpu:         0.0
 (Enter C:\G09W\l401.exe)
 Initial guess from the checkpoint file:  "pyrrole_rdkit.chk"
 B after Tr=     0.000000    0.000000    0.000000
         Rot=    1.000000    0.000000    0.000000   -0.000005 Ang=   0.00 deg.
 Guess basis will be translated and rotated to current coordinates.
 JPrj=2 DoOrth=T DoCkMO=T.
 Leave Link  401 at Thu Mar 19 18:16:40 2026, MaxMem=   536870912 cpu:         0.0
 (Enter C:\G09W\l502.exe)
 Closed shell SCF:
 Using DIIS extrapolation, IDIIS=  1040.
 Integral symmetry usage will be decided dynamically.
 Keep R1 ints in memory in canonical form, NReq=7629212.
 IVT=       41380 IEndB=       41380 NGot=   536870912 MDV=   530148193
 LenX=   530148193 LenY=   530140527
 Requested convergence on RMS density matrix=1.00D-08 within 128 cycles.
 Requested convergence on MAX density matrix=1.00D-06.
 Requested convergence on             energy=1.00D-06.
 No special actions if energy rises.
 FoFCou: FMM=F IPFlag=           0 FMFlag=           0 FMFlg1=           0
         NFxFlg=           0 DoJE=F BraDBF=F KetDBF=F FulRan=T
         wScrn=  0.000000 ICntrl=     600 IOpCl=  0 I1Cent=           0 NGrid=           0
         NMat0=    1 NMatS0=   3655 NMatT0=    0 NMatD0=    1 NMtDS0=    0 NMtDT0=    0
 Symmetry not used in FoFCou.

 Cycle   1  Pass 1  IDiag  1:
 E= -210.165806309937    
 DIIS: error= 7.05D-04 at cycle   1 NSaved=   1.
 NSaved= 1 IEnMin= 1 EnMin= -210.165806309937     IErMin= 1 ErrMin= 7.05D-04
 ErrMax= 7.05D-04  0.00D+00 EMaxC= 1.00D-01 BMatC= 4.97D-05 BMatP= 4.97D-05
 IDIUse=3 WtCom= 9.93D-01 WtEn= 7.05D-03
 Coeff-Com:  0.100D+01
 Coeff-En:   0.100D+01
 Coeff:      0.100D+01
 Gap=     1.706 Goal=   None    Shift=    0.000
 RMSDP=1.55D-04 MaxDP=1.35D-03              OVMax= 2.63D-03

 Cycle   2  Pass 1  IDiag  1:
 E= -210.165868471935     Delta-E=       -0.000062161999 Rises=F Damp=F
 DIIS: error= 2.72D-04 at cycle   2 NSaved=   2.
 NSaved= 2 IEnMin= 2 EnMin= -210.165868471935     IErMin= 2 ErrMin= 2.72D-04
 ErrMax= 2.72D-04  0.00D+00 EMaxC= 1.00D-01 BMatC= 8.80D-06 BMatP= 4.97D-05
 IDIUse=3 WtCom= 9.97D-01 WtEn= 2.72D-03
 Coeff-Com:  0.218D+00 0.782D+00
 Coeff-En:   0.000D+00 0.100D+01
 Coeff:      0.217D+00 0.783D+00
 Gap=     0.253 Goal=   None    Shift=    0.000
 RMSDP=6.18D-05 MaxDP=8.98D-04 DE=-6.22D-05 OVMax= 1.64D-03

 Cycle   3  Pass 1  IDiag  1:
 E= -210.165870445290     Delta-E=       -0.000001973355 Rises=F Damp=F
 DIIS: error= 2.82D-04 at cycle   3 NSaved=   3.
 NSaved= 3 IEnMin= 3 EnMin= -210.165870445290     IErMin= 2 ErrMin= 2.72D-04
 ErrMax= 2.82D-04  0.00D+00 EMaxC= 1.00D-01 BMatC= 5.93D-06 BMatP= 8.80D-06
 IDIUse=3 WtCom= 9.97D-01 WtEn= 2.82D-03
 Coeff-Com:  0.126D-01 0.448D+00 0.539D+00
 Coeff-En:   0.000D+00 0.438D+00 0.562D+00
 Coeff:      0.126D-01 0.448D+00 0.539D+00
 Gap=     0.252 Goal=   None    Shift=    0.000
 RMSDP=3.70D-05 MaxDP=5.74D-04 DE=-1.97D-06 OVMax= 1.13D-03

 Cycle   4  Pass 1  IDiag  1:
 E= -210.165876151910     Delta-E=       -0.000005706620 Rises=F Damp=F
 DIIS: error= 9.08D-05 at cycle   4 NSaved=   4.
 NSaved= 4 IEnMin= 4 EnMin= -210.165876151910     IErMin= 4 ErrMin= 9.08D-05
 ErrMax= 9.08D-05  0.00D+00 EMaxC= 1.00D-01 BMatC= 5.94D-07 BMatP= 5.93D-06
 IDIUse=1 WtCom= 1.00D+00 WtEn= 0.00D+00
 Coeff-Com: -0.815D-02 0.210D+00 0.328D+00 0.471D+00
 Coeff:     -0.815D-02 0.210D+00 0.328D+00 0.471D+00
 Gap=     0.253 Goal=   None    Shift=    0.000
 RMSDP=1.00D-05 MaxDP=1.73D-04 DE=-5.71D-06 OVMax= 3.23D-04

 Cycle   5  Pass 1  IDiag  1:
 E= -210.165876730736     Delta-E=       -0.000000578826 Rises=F Damp=F
 DIIS: error= 2.27D-05 at cycle   5 NSaved=   5.
 NSaved= 5 IEnMin= 5 EnMin= -210.165876730736     IErMin= 5 ErrMin= 2.27D-05
 ErrMax= 2.27D-05  0.00D+00 EMaxC= 1.00D-01 BMatC= 3.17D-08 BMatP= 5.94D-07
 IDIUse=1 WtCom= 1.00D+00 WtEn= 0.00D+00
 Coeff-Com: -0.430D-02 0.502D-01 0.107D+00 0.236D+00 0.610D+00
 Coeff:     -0.430D-02 0.502D-01 0.107D+00 0.236D+00 0.610D+00
 Gap=     0.253 Goal=   None    Shift=    0.000
 RMSDP=1.98D-06 MaxDP=6.22D-05 DE=-5.79D-07 OVMax= 7.46D-05

 Cycle   6  Pass 1  IDiag  1:
 E= -210.165876757737     Delta-E=       -0.000000027000 Rises=F Damp=F
 DIIS: error= 5.84D-06 at cycle   6 NSaved=   6.
 NSaved= 6 IEnMin= 6 EnMin= -210.165876757737     IErMin= 6 ErrMin= 5.84D-06
 ErrMax= 5.84D-06  0.00D+00 EMaxC= 1.00D-01 BMatC= 2.85D-09 BMatP= 3.17D-08
 IDIUse=1 WtCom= 1.00D+00 WtEn= 0.00D+00
 Coeff-Com: -0.181D-02 0.156D-01 0.413D-01 0.103D+00 0.340D+00 0.502D+00
 Coeff:     -0.181D-02 0.156D-01 0.413D-01 0.103D+00 0.340D+00 0.502D+00
 Gap=     0.253 Goal=   None    Shift=    0.000
 RMSDP=4.91D-07 MaxDP=1.09D-05 DE=-2.70D-08 OVMax= 1.49D-05

 Cycle   7  Pass 1  IDiag  1:
 E= -210.165876760044     Delta-E=       -0.000000002307 Rises=F Damp=F
 DIIS: error= 8.33D-07 at cycle   7 NSaved=   7.
 NSaved= 7 IEnMin= 7 EnMin= -210.165876760044     IErMin= 7 ErrMin= 8.33D-07
 ErrMax= 8.33D-07  0.00D+00 EMaxC= 1.00D-01 BMatC= 4.85D-11 BMatP= 2.85D-09
 IDIUse=1 WtCom= 1.00D+00 WtEn= 0.00D+00
 Coeff-Com: -0.117D-03-0.127D-02 0.107D-02 0.597D-02 0.497D-01 0.130D+00
 Coeff-Com:  0.815D+00
 Coeff:     -0.117D-03-0.127D-02 0.107D-02 0.597D-02 0.497D-01 0.130D+00
 Coeff:      0.815D+00
 Gap=     0.253 Goal=   None    Shift=    0.000
 RMSDP=1.15D-07 MaxDP=1.57D-06 DE=-2.31D-09 OVMax= 3.59D-06

 Cycle   8  Pass 1  IDiag  1:
 E= -210.165876760100     Delta-E=       -0.000000000056 Rises=F Damp=F
 DIIS: error= 1.93D-07 at cycle   8 NSaved=   8.
 NSaved= 8 IEnMin= 8 EnMin= -210.165876760100     IErMin= 8 ErrMin= 1.93D-07
 ErrMax= 1.93D-07  0.00D+00 EMaxC= 1.00D-01 BMatC= 2.39D-12 BMatP= 4.85D-11
 IDIUse=1 WtCom= 1.00D+00 WtEn= 0.00D+00
 Coeff-Com:  0.372D-04-0.554D-03-0.101D-02-0.203D-02-0.190D-03-0.119D-01
 Coeff-Com:  0.114D+00 0.902D+00
 Coeff:      0.372D-04-0.554D-03-0.101D-02-0.203D-02-0.190D-03-0.119D-01
 Coeff:      0.114D+00 0.902D+00
 Gap=     0.253 Goal=   None    Shift=    0.000
 RMSDP=2.02D-08 MaxDP=3.06D-07 DE=-5.58D-11 OVMax= 4.99D-07

 Cycle   9  Pass 1  IDiag  1:
 E= -210.165876760100     Delta-E=        0.000000000000 Rises=F Damp=F
 DIIS: error= 1.98D-08 at cycle   9 NSaved=   9.
 NSaved= 9 IEnMin= 9 EnMin= -210.165876760100     IErMin= 9 ErrMin= 1.98D-08
 ErrMax= 1.98D-08  0.00D+00 EMaxC= 1.00D-01 BMatC= 4.42D-14 BMatP= 2.39D-12
 IDIUse=1 WtCom= 1.00D+00 WtEn= 0.00D+00
 Coeff-Com:  0.574D-05 0.487D-05-0.107D-03-0.321D-03-0.106D-02-0.642D-02
 Coeff-Com: -0.205D-01 0.359D-01 0.992D+00
 Coeff:      0.574D-05 0.487D-05-0.107D-03-0.321D-03-0.106D-02-0.642D-02
 Coeff:     -0.205D-01 0.359D-01 0.992D+00
 Gap=     0.253 Goal=   None    Shift=    0.000
 RMSDP=3.67D-09 MaxDP=5.47D-08 DE=-2.27D-13 OVMax= 1.30D-07

 SCF Done:  E(RB3LYP) =  -210.165876760     A.U. after    9 cycles
            NFock=  9  Conv=0.37D-08     -V/T= 2.0099
 KE= 2.081064176375D+02 PE=-8.089138763176D+02 EE= 2.299376309451D+02
 Leave Link  502 at Thu Mar 19 18:16:47 2026, MaxMem=   536870912 cpu:         6.0
 (Enter C:\G09W\l701.exe)
 Compute integral first derivatives.
 ... and contract with generalized density number  0.
 Leave Link  701 at Thu Mar 19 18:16:47 2026, MaxMem=   536870912 cpu:         0.0
 (Enter C:\G09W\l702.exe)
 L702 exits ... SP integral derivatives will be done elsewhere.
 Leave Link  702 at Thu Mar 19 18:16:48 2026, MaxMem=   536870912 cpu:         0.0
 (Enter C:\G09W\l703.exe)
 Compute integral first derivatives, UseDBF=F ICtDFT=           0.
 Integral derivatives from FoFJK, PRISM(SPDF).
 Calling FoFJK, ICntrl=      2127 FMM=F ISym2X=0 I1Cent= 0 IOpClX= 0 NMat=1 NMatS=1 NMatT=0.
 FoFJK:  IHMeth= 1 ICntrl=    2127 DoSepK=F KAlg= 0 I1Cent=   0 FoldK=F
 IRaf=         0 NMat=   1 IRICut=       1 DoRegI=T DoRafI=F ISym2E= 0.
 FoFCou: FMM=F IPFlag=           0 FMFlag=      100000 FMFlg1=         800
         NFxFlg=           0 DoJE=F BraDBF=F KetDBF=F FulRan=T
         wScrn=  0.000000 ICntrl=    2127 IOpCl=  0 I1Cent=           0 NGrid=           0
         NMat0=    1 NMatS0=      1 NMatT0=    0 NMatD0=    1 NMtDS0=    0 NMtDT0=    0
 Symmetry not used in FoFCou.
 Leave Link  703 at Thu Mar 19 18:16:50 2026, MaxMem=   536870912 cpu:         2.0
 (Enter C:\G09W\l716.exe)
 Dipole        = 7.52349267D-01 2.15368023D-06-2.70192082D-07
 ***** Axes restored to original set *****
 -------------------------------------------------------------------
 Center     Atomic                   Forces (Hartrees/Bohr)
 Number     Number              X              Y              Z
 -------------------------------------------------------------------
      1        6          -0.000140523    0.000371547    0.000018808
      2        6           0.000331413   -0.000219590   -0.000008629
      3        6          -0.000269083    0.001775745    0.000097866
      4        7          -0.001455037   -0.001157793   -0.000083224
      5        6           0.001673996   -0.000657819   -0.000016752
      6        1           0.000264521   -0.000044266    0.000000545
      7        1           0.000015761    0.000267279    0.000015196
      8        1          -0.000236569    0.000208493    0.000009051
      9        1          -0.000335285   -0.000266818   -0.000019132
     10        1           0.000150806   -0.000276778   -0.000013729
 -------------------------------------------------------------------
 Cartesian Forces:  Max     0.001775745 RMS     0.000599395
 Leave Link  716 at Thu Mar 19 18:16:50 2026, MaxMem=   536870912 cpu:         0.0
 (Enter C:\G09W\l103.exe)

 GradGradGradGradGradGradGradGradGradGradGradGradGradGradGradGradGradGrad
 Berny optimization.
 Using GEDIIS/GDIIS optimizer.
 FormGI is forming the generalized inverse of G from B-inverse, IUseBI=4.
 Internal  Forces:  Max     0.001445279 RMS     0.000431914
 Search for a local minimum.
 Step number   2 out of a maximum of   55
 All quantities printed in internal units (Hartrees-Bohrs-Radians)
 RMS Force = .43191D-03 SwitMx=.10000D-02 MixMth= 2
 Mixed Optimization -- En-DIIS/RFO-DIIS
 Update second derivatives using D2CorX and points    1    2
 DE= -1.64D-04 DEPred=-2.08D-04 R= 7.88D-01
 TightC=F SS=  1.41D+00  RLast= 3.51D-02 DXNew= 5.0454D-01 1.0540D-01
 Trust test= 7.88D-01 RLast= 3.51D-02 DXMaxT set to 3.00D-01
 ITU=  1  0
 Use linear search instead of GDIIS.
     Eigenvalues ---    0.02048   0.02081   0.02110   0.02164   0.02227
     Eigenvalues ---    0.02263   0.02292   0.15964   0.16000   0.16000
     Eigenvalues ---    0.16000   0.16141   0.22000   0.26539   0.35485
     Eigenvalues ---    0.35717   0.35732   0.35792   0.40439   0.43608
     Eigenvalues ---    0.45950   0.47451   0.49316   0.50575
 RFO step:  Lambda=-1.35185581D-05 EMin= 2.04840558D-02
 Quartic linear search produced a step of -0.17226.
 Iteration  1 RMS(Cart)=  0.00179429 RMS(Int)=  0.00000173
 Iteration  2 RMS(Cart)=  0.00000211 RMS(Int)=  0.00000027
 Iteration  3 RMS(Cart)=  0.00000000 RMS(Int)=  0.00000027
 ITry= 1 IFail=0 DXMaxC= 4.16D-03 DCOld= 1.00D+10 DXMaxT= 3.00D-01 DXLimC= 3.00D+00 Rises=F
 Variable       Old X    -DE/DX   Delta X   Delta X   Delta X     New X
                                 (Linear)    (Quad)   (Total)
    R1        2.69378  -0.00065  -0.00326   0.00257  -0.00069   2.69309
    R2        2.60527   0.00004  -0.00051   0.00066   0.00015   2.60542
    R3        2.04420   0.00002   0.00018  -0.00016   0.00002   2.04422
    R4        2.60527   0.00004  -0.00051   0.00066   0.00015   2.60542
    R5        2.04420   0.00002   0.00018  -0.00016   0.00002   2.04422
    R6        2.59930  -0.00020  -0.00160   0.00159  -0.00001   2.59929
    R7        2.04231  -0.00026   0.00030  -0.00096  -0.00066   2.04165
    R8        2.59930  -0.00020  -0.00160   0.00159  -0.00001   2.59929
    R9        1.90419   0.00043   0.00139  -0.00086   0.00053   1.90472
   R10        2.04231  -0.00026   0.00030  -0.00096  -0.00066   2.04165
    A1        1.87627  -0.00037  -0.00049  -0.00088  -0.00138   1.87489
    A2        2.21465  -0.00009  -0.00001  -0.00068  -0.00068   2.21396
    A3        2.19227   0.00046   0.00050   0.00156   0.00206   2.19433
    A4        1.87627  -0.00037  -0.00049  -0.00088  -0.00138   1.87489
    A5        2.21465  -0.00009  -0.00001  -0.00068  -0.00068   2.21396
    A6        2.19227   0.00046   0.00050   0.00156   0.00206   2.19433
    A7        1.87539   0.00109   0.00163   0.00224   0.00387   1.87926
    A8        2.29180  -0.00037  -0.00023  -0.00088  -0.00110   2.29070
    A9        2.11599  -0.00073  -0.00141  -0.00136  -0.00277   2.11322
   A10        1.92145  -0.00145  -0.00228  -0.00271  -0.00498   1.91647
   A11        2.18087   0.00072   0.00114   0.00135   0.00249   2.18336
   A12        2.18087   0.00072   0.00114   0.00135   0.00249   2.18336
   A13        1.87539   0.00109   0.00163   0.00224   0.00387   1.87926
   A14        2.29180  -0.00037  -0.00023  -0.00087  -0.00110   2.29070
   A15        2.11599  -0.00073  -0.00141  -0.00136  -0.00277   2.11322
    D1        0.00000   0.00000   0.00000   0.00000   0.00000   0.00000
    D2        3.14159   0.00000   0.00000   0.00000   0.00000  -3.14159
    D3       -3.14159   0.00000   0.00000   0.00000   0.00000  -3.14159
    D4        0.00000   0.00000   0.00000   0.00000   0.00000   0.00000
    D5        0.00001   0.00000   0.00000  -0.00001  -0.00001  -0.00001
    D6       -3.14159   0.00000   0.00000   0.00000   0.00000   3.14159
    D7       -3.14159   0.00000   0.00000  -0.00001  -0.00001   3.14159
    D8        0.00000   0.00000   0.00000   0.00000   0.00000   0.00000
    D9        0.00000   0.00000   0.00000   0.00001   0.00001   0.00000
   D10       -3.14159   0.00000   0.00000   0.00000   0.00000  -3.14159
   D11        3.14159   0.00000   0.00000   0.00001   0.00001  -3.14159
   D12        0.00000   0.00000   0.00000   0.00000   0.00000   0.00000
   D13        0.00001   0.00000   0.00000  -0.00001  -0.00002  -0.00001
   D14       -3.14159   0.00000   0.00000  -0.00001  -0.00001   3.14159
   D15       -3.14159   0.00000   0.00000  -0.00001  -0.00001   3.14159
   D16        0.00000   0.00000   0.00000   0.00000   0.00000   0.00000
   D17       -0.00001   0.00000   0.00000   0.00002   0.00002   0.00001
   D18        3.14159   0.00000   0.00000   0.00001   0.00001  -3.14159
   D19        3.14159   0.00000   0.00000   0.00001   0.00001  -3.14159
   D20        0.00000   0.00000   0.00000   0.00000   0.00000   0.00000
         Item               Value     Threshold  Converged?
 Maximum Force            0.001445     0.000450     NO 
 RMS     Force            0.000432     0.000300     NO 
 Maximum Displacement     0.004158     0.001800     NO 
 RMS     Displacement     0.001794     0.001200     NO 
 Predicted change in Energy=-1.397991D-05
 Lowest energy point so far.  Saving SCF results.
 GradGradGradGradGradGradGradGradGradGradGradGradGradGradGradGradGradGrad

 Leave Link  103 at Thu Mar 19 18:16:51 2026, MaxMem=   536870912 cpu:         0.0
 (Enter C:\G09W\l202.exe)
                          Input orientation:                          
 ---------------------------------------------------------------------
 Center     Atomic      Atomic             Coordinates (Angstroms)
 Number     Number       Type             X           Y           Z
 ---------------------------------------------------------------------
      1          6           0        0.308054    1.155136    0.068749
      2          6           0        1.196628    0.042183    0.016301
      3          6           0        0.425685   -1.098500   -0.057016
      4          7           0       -0.894239   -0.711571   -0.050548
      5          6           0       -0.977692    0.659252    0.025820
      6          1           0        0.580231    2.200246    0.130872
      7          1           0        2.277820    0.073987    0.030673
      8          1           0        0.700762   -2.141807   -0.112671
      9          1           0       -1.682172   -1.338552   -0.095089
     10          1           0       -1.935077    1.159626    0.042911
 ---------------------------------------------------------------------
                    Distance matrix (angstroms):
                    1          2          3          4          5
     1  C    0.000000
     2  C    1.425124   0.000000
     3  C    2.260206   1.378727   0.000000
     4  N    2.223587   2.223587   1.375483   0.000000
     5  C    1.378727   2.260206   2.250782   1.375483   0.000000
     6  H    1.081755   2.247289   3.307705   3.268892   2.193815
     7  H    2.247289   1.081755   2.193815   3.268892   3.307705
     8  H    3.325201   2.243285   1.080395   2.143236   3.268381
     9  H    3.194734   3.194734   2.121823   1.007933   2.121823
    10  H    2.243285   3.325201   3.268381   2.143236   1.080395
                    6          7          8          9         10
     6  H    0.000000
     7  H    2.722650   0.000000
     8  H    4.350548   2.723491   0.000000
     9  H    4.206260   4.206260   2.514737   0.000000
    10  H    2.723491   4.350548   4.227447   2.514737   0.000000
 Stoichiometry    C4H5N
 Framework group  C1[X(C4H5N)]
 Deg. of freedom    24
 Full point group                 C1      NOp   1
 RotChk:  IX=1 Diff= 4.48D-06
 Largest Abelian subgroup         C1      NOp   1
 Largest concise Abelian subgroup C1      NOp   1
                         Standard orientation:                         
 ---------------------------------------------------------------------
 Center     Atomic      Atomic             Coordinates (Angstroms)
 Number     Number       Type             X           Y           Z
 ---------------------------------------------------------------------
      1          6           0       -0.983796   -0.712562   -0.000001
      2          6           0       -0.983796    0.712562    0.000000
      3          6           0        0.331674    1.125391    0.000002
      4          7           0        1.122526    0.000000   -0.000002
      5          6           0        0.331673   -1.125391    0.000003
      6          1           0       -1.849418   -1.361325   -0.000003
      7          1           0       -1.849418    1.361325   -0.000001
      8          1           0        0.768082    2.113724    0.000004
      9          1           0        2.130459    0.000000   -0.000006
     10          1           0        0.768081   -2.113724    0.000004
 ---------------------------------------------------------------------
 Rotational constants (GHZ):      9.1350644      8.9971251      4.5327850
 Leave Link  202 at Thu Mar 19 18:16:51 2026, MaxMem=   536870912 cpu:         0.0
 (Enter C:\G09W\l301.exe)
 Standard basis: 6-31G(d) (6D, 7F)
 Ernie: Thresh=  0.10000D-02 Tol=  0.10000D-05 Strict=F.
 There are    85 symmetry adapted cartesian basis functions of A   symmetry.
 There are    85 symmetry adapted basis functions of A   symmetry.
    85 basis functions,   160 primitive gaussians,    85 cartesian basis functions
    18 alpha electrons       18 beta electrons
       nuclear repulsion energy       160.7041891607 Hartrees.
 IExCor=  402 DFT=T Ex+Corr=B3LYP ExCW=0 ScaHFX=  0.200000
 ScaDFX=  0.800000  0.720000  1.000000  0.810000 ScalE2=  1.000000  1.000000
 IRadAn=      0 IRanWt=     -1 IRanGd=            0 ICorTp=0 IEmpDi=  4
 NAtoms=   10 NActive=   10 NUniq=   10 SFac= 1.00D+00 NAtFMM=   60 NAOKFM=F Big=F
 Integral buffers will be    131072 words long.
 Raffenetti 2 integral format.
 Two-electron integral symmetry is turned on.
 Leave Link  301 at Thu Mar 19 18:16:52 2026, MaxMem=   536870912 cpu:         0.0
 (Enter C:\G09W\l302.exe)
 NPDir=0 NMtPBC=     1 NCelOv=     1 NCel=       1 NClECP=     1 NCelD=      1
         NCelK=      1 NCelE2=     1 NClLst=     1 CellRange=     0.0.
 One-electron integrals computed using PRISM.
 NBasis=    85 RedAO= T EigKep=  1.32D-03  NBF=    85
 NBsUse=    85 1.00D-06 EigRej= -1.00D+00 NBFU=    85
 Precomputing XC quadrature grid using
 IXCGrd= 4 IRadAn=           0 IRanWt=          -1 IRanGd=           0 AccXCQ= 0.00D+00.
 Generated NRdTot=       0 NPtTot=           0 NUsed=           0 NTot=          32
 NSgBfM=    85    85    85    85    85 MxSgAt=    10 MxSgA2=    10.
 Leave Link  302 at Thu Mar 19 18:16:53 2026, MaxMem=   536870912 cpu:         1.0
 (Enter C:\G09W\l303.exe)
 DipDrv:  MaxL=1.
 Leave Link  303 at Thu Mar 19 18:16:54 2026, MaxMem=   536870912 cpu:         0.0
 (Enter C:\G09W\l401.exe)
 Initial guess from the checkpoint file:  "pyrrole_rdkit.chk"
 B after Tr=     0.000000    0.000000    0.000000
         Rot=    1.000000    0.000000    0.000000    0.000002 Ang=   0.00 deg.
 Guess basis will be translated and rotated to current coordinates.
 JPrj=2 DoOrth=T DoCkMO=T.
 Leave Link  401 at Thu Mar 19 18:16:54 2026, MaxMem=   536870912 cpu:         0.0
 (Enter C:\G09W\l502.exe)
 Closed shell SCF:
 Using DIIS extrapolation, IDIIS=  1040.
 Integral symmetry usage will be decided dynamically.
 Keep R1 ints in memory in canonical form, NReq=7629212.
 IVT=       41380 IEndB=       41380 NGot=   536870912 MDV=   530148193
 LenX=   530148193 LenY=   530140527
 Requested convergence on RMS density matrix=1.00D-08 within 128 cycles.
 Requested convergence on MAX density matrix=1.00D-06.
 Requested convergence on             energy=1.00D-06.
 No special actions if energy rises.
 FoFCou: FMM=F IPFlag=           0 FMFlag=           0 FMFlg1=           0
         NFxFlg=           0 DoJE=F BraDBF=F KetDBF=F FulRan=T
         wScrn=  0.000000 ICntrl=     600 IOpCl=  0 I1Cent=           0 NGrid=           0
         NMat0=    1 NMatS0=   3655 NMatT0=    0 NMatD0=    1 NMtDS0=    0 NMtDT0=    0
 Symmetry not used in FoFCou.

 Cycle   1  Pass 1  IDiag  1:
 E= -210.165886625403    
 DIIS: error= 1.70D-04 at cycle   1 NSaved=   1.
 NSaved= 1 IEnMin= 1 EnMin= -210.165886625403     IErMin= 1 ErrMin= 1.70D-04
 ErrMax= 1.70D-04  0.00D+00 EMaxC= 1.00D-01 BMatC= 2.39D-06 BMatP= 2.39D-06
 IDIUse=3 WtCom= 9.98D-01 WtEn= 1.70D-03
 Coeff-Com:  0.100D+01
 Coeff-En:   0.100D+01
 Coeff:      0.100D+01
 Gap=     1.707 Goal=   None    Shift=    0.000
 RMSDP=3.46D-05 MaxDP=3.43D-04              OVMax= 6.28D-04

 Cycle   2  Pass 1  IDiag  1:
 E= -210.165890103765     Delta-E=       -0.000003478362 Rises=F Damp=F
 DIIS: error= 3.18D-05 at cycle   2 NSaved=   2.
 NSaved= 2 IEnMin= 2 EnMin= -210.165890103765     IErMin= 2 ErrMin= 3.18D-05
 ErrMax= 3.18D-05  0.00D+00 EMaxC= 1.00D-01 BMatC= 1.09D-07 BMatP= 2.39D-06
 IDIUse=1 WtCom= 1.00D+00 WtEn= 0.00D+00
 Coeff-Com:  0.385D-01 0.961D+00
 Coeff:      0.385D-01 0.961D+00
 Gap=     0.252 Goal=   None    Shift=    0.000
 RMSDP=6.20D-06 MaxDP=1.40D-04 DE=-3.48D-06 OVMax= 1.64D-04

 Cycle   3  Pass 1  IDiag  1:
 E= -210.165890089669     Delta-E=        0.000000014096 Rises=F Damp=F
 DIIS: error= 3.65D-05 at cycle   3 NSaved=   3.
 NSaved= 3 IEnMin= 2 EnMin= -210.165890103765     IErMin= 2 ErrMin= 3.18D-05
 ErrMax= 3.65D-05  0.00D+00 EMaxC= 1.00D-01 BMatC= 1.34D-07 BMatP= 1.09D-07
 IDIUse=1 WtCom= 1.00D+00 WtEn= 0.00D+00
 Coeff-Com: -0.149D-01 0.533D+00 0.482D+00
 Coeff:     -0.149D-01 0.533D+00 0.482D+00
 Gap=     0.252 Goal=   None    Shift=    0.000
 RMSDP=3.44D-06 MaxDP=1.04D-04 DE= 1.41D-08 OVMax= 1.12D-04

 Cycle   4  Pass 1  IDiag  1:
 E= -210.165890196805     Delta-E=       -0.000000107136 Rises=F Damp=F
 DIIS: error= 8.08D-06 at cycle   4 NSaved=   4.
 NSaved= 4 IEnMin= 4 EnMin= -210.165890196805     IErMin= 4 ErrMin= 8.08D-06
 ErrMax= 8.08D-06  0.00D+00 EMaxC= 1.00D-01 BMatC= 3.84D-09 BMatP= 1.09D-07
 IDIUse=1 WtCom= 1.00D+00 WtEn= 0.00D+00
 Coeff-Com: -0.916D-02 0.133D+00 0.207D+00 0.669D+00
 Coeff:     -0.916D-02 0.133D+00 0.207D+00 0.669D+00
 Gap=     0.252 Goal=   None    Shift=    0.000
 RMSDP=6.71D-07 MaxDP=1.79D-05 DE=-1.07D-07 OVMax= 2.25D-05

 Cycle   5  Pass 1  IDiag  1:
 E= -210.165890199617     Delta-E=       -0.000000002812 Rises=F Damp=F
 DIIS: error= 2.48D-06 at cycle   5 NSaved=   5.
 NSaved= 5 IEnMin= 5 EnMin= -210.165890199617     IErMin= 5 ErrMin= 2.48D-06
 ErrMax= 2.48D-06  0.00D+00 EMaxC= 1.00D-01 BMatC= 4.43D-10 BMatP= 3.84D-09
 IDIUse=1 WtCom= 1.00D+00 WtEn= 0.00D+00
 Coeff-Com: -0.514D-02 0.623D-01 0.112D+00 0.402D+00 0.429D+00
 Coeff:     -0.514D-02 0.623D-01 0.112D+00 0.402D+00 0.429D+00
 Gap=     0.252 Goal=   None    Shift=    0.000
 RMSDP=3.06D-07 MaxDP=4.47D-06 DE=-2.81D-09 OVMax= 1.11D-05

 Cycle   6  Pass 1  IDiag  1:
 E= -210.165890200074     Delta-E=       -0.000000000457 Rises=F Damp=F
 DIIS: error= 6.56D-07 at cycle   6 NSaved=   6.
 NSaved= 6 IEnMin= 6 EnMin= -210.165890200074     IErMin= 6 ErrMin= 6.56D-07
 ErrMax= 6.56D-07  0.00D+00 EMaxC= 1.00D-01 BMatC= 2.43D-11 BMatP= 4.43D-10
 IDIUse=1 WtCom= 1.00D+00 WtEn= 0.00D+00
 Coeff-Com: -0.537D-03 0.411D-02 0.136D-01 0.407D-01 0.186D+00 0.756D+00
 Coeff:     -0.537D-03 0.411D-02 0.136D-01 0.407D-01 0.186D+00 0.756D+00
 Gap=     0.252 Goal=   None    Shift=    0.000
 RMSDP=7.09D-08 MaxDP=9.50D-07 DE=-4.57D-10 OVMax= 2.95D-06

 Cycle   7  Pass 1  IDiag  1:
 E= -210.165890200097     Delta-E=       -0.000000000024 Rises=F Damp=F
 DIIS: error= 1.78D-07 at cycle   7 NSaved=   7.
 NSaved= 7 IEnMin= 7 EnMin= -210.165890200097     IErMin= 7 ErrMin= 1.78D-07
 ErrMax= 1.78D-07  0.00D+00 EMaxC= 1.00D-01 BMatC= 2.64D-12 BMatP= 2.43D-11
 IDIUse=1 WtCom= 1.00D+00 WtEn= 0.00D+00
 Coeff-Com:  0.174D-03-0.361D-02-0.328D-02-0.187D-01 0.521D-01 0.361D+00
 Coeff-Com:  0.613D+00
 Coeff:      0.174D-03-0.361D-02-0.328D-02-0.187D-01 0.521D-01 0.361D+00
 Coeff:      0.613D+00
 Gap=     0.252 Goal=   None    Shift=    0.000
 RMSDP=2.07D-08 MaxDP=2.53D-07 DE=-2.36D-11 OVMax= 4.48D-07

 Cycle   8  Pass 1  IDiag  1:
 E= -210.165890200100     Delta-E=       -0.000000000003 Rises=F Damp=F
 DIIS: error= 2.62D-08 at cycle   8 NSaved=   8.
 NSaved= 8 IEnMin= 8 EnMin= -210.165890200100     IErMin= 8 ErrMin= 2.62D-08
 ErrMax= 2.62D-08  0.00D+00 EMaxC= 1.00D-01 BMatC= 6.82D-14 BMatP= 2.64D-12
 IDIUse=1 WtCom= 1.00D+00 WtEn= 0.00D+00
 Coeff-Com:  0.789D-04-0.124D-02-0.165D-02-0.900D-02 0.695D-02 0.703D-01
 Coeff-Com:  0.199D+00 0.736D+00
 Coeff:      0.789D-04-0.124D-02-0.165D-02-0.900D-02 0.695D-02 0.703D-01
 Coeff:      0.199D+00 0.736D+00
 Gap=     0.252 Goal=   None    Shift=    0.000
 RMSDP=4.07D-09 MaxDP=4.23D-08 DE=-2.90D-12 OVMax= 1.10D-07

 SCF Done:  E(RB3LYP) =  -210.165890200     A.U. after    8 cycles
            NFock=  8  Conv=0.41D-08     -V/T= 2.0099
 KE= 2.081071799736D+02 PE=-8.089143450571D+02 EE= 2.299370857227D+02
 Leave Link  502 at Thu Mar 19 18:17:00 2026, MaxMem=   536870912 cpu:         5.0
 (Enter C:\G09W\l701.exe)
 Compute integral first derivatives.
 ... and contract with generalized density number  0.
 Leave Link  701 at Thu Mar 19 18:17:00 2026, MaxMem=   536870912 cpu:         0.0
 (Enter C:\G09W\l702.exe)
 L702 exits ... SP integral derivatives will be done elsewhere.
 Leave Link  702 at Thu Mar 19 18:17:00 2026, MaxMem=   536870912 cpu:         0.0
 (Enter C:\G09W\l703.exe)
 Compute integral first derivatives, UseDBF=F ICtDFT=           0.
 Integral derivatives from FoFJK, PRISM(SPDF).
 Calling FoFJK, ICntrl=      2127 FMM=F ISym2X=0 I1Cent= 0 IOpClX= 0 NMat=1 NMatS=1 NMatT=0.
 FoFJK:  IHMeth= 1 ICntrl=    2127 DoSepK=F KAlg= 0 I1Cent=   0 FoldK=F
 IRaf=         0 NMat=   1 IRICut=       1 DoRegI=T DoRafI=F ISym2E= 0.
 FoFCou: FMM=F IPFlag=           0 FMFlag=      100000 FMFlg1=         800
         NFxFlg=           0 DoJE=F BraDBF=F KetDBF=F FulRan=T
         wScrn=  0.000000 ICntrl=    2127 IOpCl=  0 I1Cent=           0 NGrid=           0
         NMat0=    1 NMatS0=      1 NMatT0=    0 NMatD0=    1 NMtDS0=    0 NMtDT0=    0
 Symmetry not used in FoFCou.
 Leave Link  703 at Thu Mar 19 18:17:02 2026, MaxMem=   536870912 cpu:         2.0
 (Enter C:\G09W\l716.exe)
 Dipole        = 7.51785943D-01-1.39978467D-07-1.27235008D-06
 ***** Axes restored to original set *****
 -------------------------------------------------------------------
 Center     Atomic                   Forces (Hartrees/Bohr)
 Number     Number              X              Y              Z
 -------------------------------------------------------------------
      1        6          -0.000525648   -0.000101377   -0.000011449
      2        6          -0.000216169   -0.000488932   -0.000029972
      3        6           0.000223764    0.000402433    0.000024653
      4        7           0.000149570    0.000118962    0.000009386
      5        6           0.000442869    0.000128125    0.000011444
      6        1           0.000034788   -0.000033516   -0.000001359
      7        1          -0.000024967    0.000041320    0.000002086
      8        1           0.000020611   -0.000079654   -0.000004390
      9        1          -0.000031613   -0.000025173   -0.000001553
     10        1          -0.000073204    0.000037813    0.000001155
 -------------------------------------------------------------------
 Cartesian Forces:  Max     0.000525648 RMS     0.000187546
 Leave Link  716 at Thu Mar 19 18:17:02 2026, MaxMem=   536870912 cpu:         0.0
 (Enter C:\G09W\l103.exe)

 GradGradGradGradGradGradGradGradGradGradGradGradGradGradGradGradGradGrad
 Berny optimization.
 Using GEDIIS/GDIIS optimizer.
 FormGI is forming the generalized inverse of G from B-inverse, IUseBI=4.
 Internal  Forces:  Max     0.000477577 RMS     0.000106696
 Search for a local minimum.
 Step number   3 out of a maximum of   55
 All quantities printed in internal units (Hartrees-Bohrs-Radians)
 RMS Force = .10670D-03 SwitMx=.10000D-02 MixMth= 2
 Mixed Optimization -- En-DIIS/RFO-DIIS
 Swapping is turned off.
 Update second derivatives using D2CorX and points    1    2    3
 DE= -1.34D-05 DEPred=-1.40D-05 R= 9.61D-01
 TightC=F SS=  1.41D+00  RLast= 9.99D-03 DXNew= 5.0454D-01 2.9971D-02
 Trust test= 9.61D-01 RLast= 9.99D-03 DXMaxT set to 3.00D-01
 ITU=  1  1  0
     Eigenvalues ---    0.02049   0.02081   0.02110   0.02164   0.02227
     Eigenvalues ---    0.02263   0.02292   0.15698   0.16000   0.16000
     Eigenvalues ---    0.16000   0.16042   0.22000   0.26238   0.35634
     Eigenvalues ---    0.35717   0.35792   0.35899   0.40225   0.43584
     Eigenvalues ---    0.45700   0.47363   0.50574   0.54201
 En-DIIS/RFO-DIIS IScMMF=        0 using points:     3    2
 RFO step:  Lambda=-7.13388752D-07.
 NNeg= 0 NP= 2 Switch=  2.50D-03 Rises=F DC=  1.34D-05 SmlDif=  1.00D-05
 RMS Error=  0.1497438278D-03 NUsed= 2 EDIIS=F
 DidBck=F Rises=F RFO-DIIS coefs:    0.95598    0.04402
 Iteration  1 RMS(Cart)=  0.00020870 RMS(Int)=  0.00000004
 Iteration  2 RMS(Cart)=  0.00000002 RMS(Int)=  0.00000003
 ITry= 1 IFail=0 DXMaxC= 5.54D-04 DCOld= 1.00D+10 DXMaxT= 3.00D-01 DXLimC= 3.00D+00 Rises=F
 Variable       Old X    -DE/DX   Delta X   Delta X   Delta X     New X
                                 (Linear)    (Quad)   (Total)
    R1        2.69309   0.00010   0.00003   0.00014   0.00017   2.69326
    R2        2.60542  -0.00048  -0.00001  -0.00090  -0.00091   2.60451
    R3        2.04422  -0.00002   0.00000  -0.00006  -0.00006   2.04416
    R4        2.60542  -0.00048  -0.00001  -0.00090  -0.00091   2.60451
    R5        2.04422  -0.00002   0.00000  -0.00006  -0.00006   2.04416
    R6        2.59929  -0.00004   0.00000  -0.00007  -0.00006   2.59922
    R7        2.04165   0.00008   0.00003   0.00016   0.00019   2.04184
    R8        2.59929  -0.00004   0.00000  -0.00007  -0.00006   2.59922
    R9        1.90472   0.00004  -0.00002   0.00013   0.00011   1.90482
   R10        2.04165   0.00008   0.00003   0.00016   0.00019   2.04184
    A1        1.87489   0.00004   0.00006   0.00001   0.00007   1.87496
    A2        2.21396  -0.00006   0.00003  -0.00038  -0.00035   2.21362
    A3        2.19433   0.00002  -0.00009   0.00037   0.00028   2.19461
    A4        1.87489   0.00004   0.00006   0.00001   0.00007   1.87496
    A5        2.21396  -0.00006   0.00003  -0.00038  -0.00035   2.21362
    A6        2.19433   0.00002  -0.00009   0.00037   0.00028   2.19461
    A7        1.87926  -0.00006  -0.00017   0.00008  -0.00009   1.87918
    A8        2.29070   0.00003   0.00005   0.00003   0.00008   2.29078
    A9        2.11322   0.00003   0.00012  -0.00012   0.00001   2.11323
   A10        1.91647   0.00005   0.00022  -0.00018   0.00004   1.91651
   A11        2.18336  -0.00002  -0.00011   0.00009  -0.00002   2.18334
   A12        2.18336  -0.00002  -0.00011   0.00009  -0.00002   2.18334
   A13        1.87926  -0.00006  -0.00017   0.00008  -0.00009   1.87918
   A14        2.29070   0.00003   0.00005   0.00003   0.00008   2.29078
   A15        2.11322   0.00003   0.00012  -0.00012   0.00001   2.11323
    D1        0.00000   0.00000   0.00000   0.00000   0.00000   0.00000
    D2       -3.14159   0.00000   0.00000   0.00000   0.00000   3.14159
    D3       -3.14159   0.00000   0.00000   0.00000   0.00000  -3.14159
    D4        0.00000   0.00000   0.00000   0.00000   0.00000   0.00000
    D5       -0.00001   0.00000   0.00000   0.00001   0.00002   0.00001
    D6        3.14159   0.00000   0.00000   0.00000   0.00000  -3.14159
    D7        3.14159   0.00000   0.00000   0.00001   0.00001  -3.14159
    D8        0.00000   0.00000   0.00000   0.00000   0.00000   0.00000
    D9        0.00000   0.00000   0.00000  -0.00001  -0.00001  -0.00001
   D10       -3.14159   0.00000   0.00000   0.00000   0.00000  -3.14159
   D11       -3.14159   0.00000   0.00000  -0.00001  -0.00001   3.14159
   D12        0.00000   0.00000   0.00000   0.00000   0.00000   0.00000
   D13       -0.00001   0.00000   0.00000   0.00002   0.00002   0.00001
   D14        3.14159   0.00000   0.00000   0.00001   0.00001  -3.14159
   D15        3.14159   0.00000   0.00000   0.00001   0.00001  -3.14159
   D16        0.00000   0.00000   0.00000   0.00000   0.00000   0.00000
   D17        0.00001   0.00000   0.00000  -0.00002  -0.00002  -0.00001
   D18       -3.14159   0.00000   0.00000  -0.00001  -0.00001   3.14159
   D19       -3.14159   0.00000   0.00000  -0.00001  -0.00001   3.14159
   D20        0.00000   0.00000   0.00000   0.00000   0.00000   0.00000
         Item               Value     Threshold  Converged?
 Maximum Force            0.000478     0.000450     NO 
 RMS     Force            0.000107     0.000300     YES
 Maximum Displacement     0.000554     0.001800     YES
 RMS     Displacement     0.000209     0.001200     YES
 Predicted change in Energy=-5.045243D-07
 Lowest energy point so far.  Saving SCF results.
 GradGradGradGradGradGradGradGradGradGradGradGradGradGradGradGradGradGrad

 Leave Link  103 at Thu Mar 19 18:17:02 2026, MaxMem=   536870912 cpu:         0.0
 (Enter C:\G09W\l202.exe)
                          Input orientation:                          
 ---------------------------------------------------------------------
 Center     Atomic      Atomic             Coordinates (Angstroms)
 Number     Number       Type             X           Y           Z
 ---------------------------------------------------------------------
      1          6           0        0.307774    1.154969    0.068739
[...]
 RMS Force = .20820D-04 SwitMx=.10000D-02 MixMth= 2
 Mixed Optimization -- En-DIIS/RFO-DIIS
 Swapping is turned off.
 Update second derivatives using D2CorX and points    1    2    3    4
 DE= -5.70D-07 DEPred=-5.05D-07 R= 1.13D+00
 Trust test= 1.13D+00 RLast= 1.49D-03 DXMaxT set to 3.00D-01
 ITU=  0  1  1  0
     Eigenvalues ---    0.02049   0.02081   0.02111   0.02164   0.02227
     Eigenvalues ---    0.02263   0.02292   0.14024   0.16000   0.16000
     Eigenvalues ---    0.16000   0.16031   0.22000   0.25345   0.35583
     Eigenvalues ---    0.35717   0.35792   0.35944   0.40399   0.43584
     Eigenvalues ---    0.44042   0.46110   0.50574   0.55562
 En-DIIS/RFO-DIIS IScMMF=        0 using points:     4    3    2
 RFO step:  Lambda=-3.68664341D-08.
 NNeg= 0 NP= 3 Switch=  2.50D-03 Rises=F DC=  1.34D-05 SmlDif=  1.00D-05
 RMS Error=  0.4077468395D-04 NUsed= 3 EDIIS=F
 DidBck=F Rises=F RFO-DIIS coefs:    1.15752   -0.15119   -0.00633
 Iteration  1 RMS(Cart)=  0.00007506 RMS(Int)=  0.00000001
 Iteration  2 RMS(Cart)=  0.00000001 RMS(Int)=  0.00000000
 ITry= 1 IFail=0 DXMaxC= 2.80D-04 DCOld= 1.00D+10 DXMaxT= 3.00D-01 DXLimC= 3.00D+00 Rises=F
 Variable       Old X    -DE/DX   Delta X   Delta X   Delta X     New X
                                 (Linear)    (Quad)   (Total)
    R1        2.69326   0.00009   0.00002   0.00026   0.00028   2.69354
    R2        2.60451  -0.00005  -0.00014  -0.00002  -0.00016   2.60435
    R3        2.04416   0.00000  -0.00001   0.00001   0.00000   2.04416
    R4        2.60451  -0.00005  -0.00014  -0.00002  -0.00016   2.60435
    R5        2.04416   0.00000  -0.00001   0.00001   0.00000   2.04416
    R6        2.59922   0.00004  -0.00001   0.00012   0.00011   2.59933
    R7        2.04184   0.00001   0.00003   0.00002   0.00004   2.04188
    R8        2.59922   0.00004  -0.00001   0.00012   0.00011   2.59933
    R9        1.90482  -0.00001   0.00002  -0.00005  -0.00003   1.90480
   R10        2.04184   0.00001   0.00003   0.00002   0.00004   2.04188
    A1        1.87496   0.00000   0.00000  -0.00001  -0.00001   1.87495
    A2        2.21362  -0.00003  -0.00006  -0.00016  -0.00022   2.21339
    A3        2.19461   0.00002   0.00006   0.00018   0.00023   2.19485
    A4        1.87496   0.00000   0.00000  -0.00001  -0.00001   1.87495
    A5        2.21362  -0.00003  -0.00006  -0.00016  -0.00022   2.21339
    A6        2.19461   0.00002   0.00006   0.00018   0.00023   2.19485
    A7        1.87918   0.00000   0.00001   0.00002   0.00003   1.87920
    A8        2.29078   0.00001   0.00001   0.00003   0.00003   2.29082
    A9        2.11323   0.00000  -0.00002  -0.00004  -0.00006   2.11316
   A10        1.91651   0.00000  -0.00003  -0.00001  -0.00003   1.91648
   A11        2.18334   0.00000   0.00001   0.00000   0.00002   2.18335
   A12        2.18334   0.00000   0.00001   0.00000   0.00002   2.18335
   A13        1.87918   0.00000   0.00001   0.00002   0.00003   1.87920
   A14        2.29078   0.00001   0.00001   0.00003   0.00003   2.29082
   A15        2.11323   0.00000  -0.00002  -0.00004  -0.00006   2.11316
    D1        0.00000   0.00000   0.00000   0.00001   0.00001   0.00000
    D2        3.14159   0.00000   0.00000   0.00001   0.00001  -3.14159
    D3       -3.14159   0.00000   0.00000   0.00000   0.00000   3.14159
    D4        0.00000   0.00000   0.00000   0.00000   0.00000   0.00000
    D5        0.00001   0.00000   0.00000  -0.00003  -0.00002  -0.00001
    D6       -3.14159   0.00000   0.00000   0.00000   0.00000   3.14159
    D7       -3.14159   0.00000   0.00000  -0.00002  -0.00002   3.14158
    D8        0.00000   0.00000   0.00000   0.00000   0.00000   0.00000
    D9       -0.00001   0.00000   0.00000   0.00001   0.00001   0.00001
   D10       -3.14159   0.00000   0.00000   0.00000   0.00000   3.14159
   D11        3.14159   0.00000   0.00000   0.00001   0.00001  -3.14159
   D12        0.00000   0.00000   0.00000   0.00000   0.00000   0.00000
   D13        0.00001   0.00000   0.00000  -0.00003  -0.00003  -0.00002
   D14       -3.14159   0.00000   0.00000  -0.00001  -0.00001   3.14158
   D15       -3.14159   0.00000   0.00000  -0.00002  -0.00002   3.14158
   D16        0.00000   0.00000   0.00000   0.00000   0.00000   0.00000
   D17       -0.00001   0.00000   0.00000   0.00004   0.00003   0.00002
   D18        3.14159   0.00000   0.00000   0.00002   0.00002  -3.14158
   D19        3.14159   0.00000   0.00000   0.00002   0.00001  -3.14158
   D20        0.00000   0.00000   0.00000   0.00000   0.00000   0.00000
         Item               Value     Threshold  Converged?
 Maximum Force            0.000092     0.000450     YES
 RMS     Force            0.000021     0.000300     YES
 Maximum Displacement     0.000280     0.001800     YES
 RMS     Displacement     0.000075     0.001200     YES
 Predicted change in Energy=-3.740786D-08
 Optimization completed.
    -- Stationary point found.
                           ----------------------------
                           !   Optimized Parameters   !
                           ! (Angstroms and Degrees)  !
 --------------------------                            --------------------------
 ! Name  Definition              Value          Derivative Info.                !
 --------------------------------------------------------------------------------
 ! R1    R(1,2)                  1.4252         -DE/DX =    0.0001              !
 ! R2    R(1,5)                  1.3782         -DE/DX =    0.0                 !
 ! R3    R(1,6)                  1.0817         -DE/DX =    0.0                 !
 ! R4    R(2,3)                  1.3782         -DE/DX =    0.0                 !
 ! R5    R(2,7)                  1.0817         -DE/DX =    0.0                 !
 ! R6    R(3,4)                  1.3754         -DE/DX =    0.0                 !
 ! R7    R(3,8)                  1.0805         -DE/DX =    0.0                 !
 ! R8    R(4,5)                  1.3754         -DE/DX =    0.0                 !
 ! R9    R(4,9)                  1.008          -DE/DX =    0.0                 !
 ! R10   R(5,10)                 1.0805         -DE/DX =    0.0                 !
 ! A1    A(2,1,5)              107.4271         -DE/DX =    0.0                 !
 ! A2    A(2,1,6)              126.8308         -DE/DX =    0.0                 !
 ! A3    A(5,1,6)              125.7421         -DE/DX =    0.0                 !
 ! A4    A(1,2,3)              107.4271         -DE/DX =    0.0                 !
 ! A5    A(1,2,7)              126.8308         -DE/DX =    0.0                 !
 ! A6    A(3,2,7)              125.7421         -DE/DX =    0.0                 !
 ! A7    A(2,3,4)              107.6689         -DE/DX =    0.0                 !
 ! A8    A(2,3,8)              131.2522         -DE/DX =    0.0                 !
 ! A9    A(4,3,8)              121.0789         -DE/DX =    0.0                 !
 ! A10   A(3,4,5)              109.8081         -DE/DX =    0.0                 !
 ! A11   A(3,4,9)              125.0959         -DE/DX =    0.0                 !
 ! A12   A(5,4,9)              125.0959         -DE/DX =    0.0                 !
 ! A13   A(1,5,4)              107.6689         -DE/DX =    0.0                 !
 ! A14   A(1,5,10)             131.2522         -DE/DX =    0.0                 !
 ! A15   A(4,5,10)             121.0789         -DE/DX =    0.0                 !
 ! D1    D(5,1,2,3)             -0.0001         -DE/DX =    0.0                 !
 ! D2    D(5,1,2,7)           -180.0001         -DE/DX =    0.0                 !
 ! D3    D(6,1,2,3)            180.0001         -DE/DX =    0.0                 !
 ! D4    D(6,1,2,7)              0.0            -DE/DX =    0.0                 !
 ! D5    D(2,1,5,4)              0.0005         -DE/DX =    0.0                 !
 ! D6    D(2,1,5,10)           180.0001         -DE/DX =    0.0                 !
 ! D7    D(6,1,5,4)            180.0003         -DE/DX =    0.0                 !
 ! D8    D(6,1,5,10)            -0.0001         -DE/DX =    0.0                 !
 ! D9    D(1,2,3,4)             -0.0003         -DE/DX =    0.0                 !
 ! D10   D(1,2,3,8)            180.0001         -DE/DX =    0.0                 !
 ! D11   D(7,2,3,4)           -180.0003         -DE/DX =    0.0                 !
 ! D12   D(7,2,3,8)              0.0001         -DE/DX =    0.0                 !
 ! D13   D(2,3,4,5)              0.0006         -DE/DX =    0.0                 !
 ! D14   D(2,3,4,9)            180.0001         -DE/DX =    0.0                 !
 ! D15   D(8,3,4,5)            180.0003         -DE/DX =    0.0                 !
 ! D16   D(8,3,4,9)             -0.0002         -DE/DX =    0.0                 !
 ! D17   D(3,4,5,1)             -0.0007         -DE/DX =    0.0                 !
 ! D18   D(3,4,5,10)          -180.0003         -DE/DX =    0.0                 !
 ! D19   D(9,4,5,1)           -180.0002         -DE/DX =    0.0                 !
 ! D20   D(9,4,5,10)             0.0001         -DE/DX =    0.0                 !
 --------------------------------------------------------------------------------
 Lowest energy point so far.  Saving SCF results.
 GradGradGradGradGradGradGradGradGradGradGradGradGradGradGradGradGradGrad

 Largest change from initial coordinates is atom    3       0.007 Angstoms.
 Leave Link  103 at Thu Mar 19 18:17:15 2026, MaxMem=   536870912 cpu:         0.0
 (Enter C:\G09W\l202.exe)
                          Input orientation:                          
 ---------------------------------------------------------------------
 Center     Atomic      Atomic             Coordinates (Angstroms)
 Number     Number       Type             X           Y           Z
 ---------------------------------------------------------------------
      1          6           0        0.307774    1.154969    0.068739
      2          6           0        1.196402    0.041947    0.016285
      3          6           0        0.425804   -1.098389   -0.057013
      4          7           0       -0.894078   -0.711444   -0.050533
      5          6           0       -0.977557    0.659344    0.025820
      6          1           0        0.580306    2.199953    0.130862
      7          1           0        2.277551    0.074125    0.030679
      8          1           0        0.700892   -2.141796   -0.112676
      9          1           0       -1.682056   -1.338460   -0.095071
     10          1           0       -1.935038    1.159751    0.042909
 ---------------------------------------------------------------------
                    Distance matrix (angstroms):
                    1          2          3          4          5
     1  C    0.000000
     2  C    1.425212   0.000000
     3  C    2.259949   1.378246   0.000000
     4  N    2.223100   2.223100   1.375449   0.000000
     5  C    1.378246   2.259949   2.250758   1.375449   0.000000
     6  H    1.081723   2.247152   3.307300   3.268477   2.193501
     7  H    2.247152   1.081723   2.193501   3.268477   3.307300
     8  H    3.325074   2.242966   1.080495   2.143292   3.268449
     9  H    3.194283   3.194283   2.121828   1.007989   2.121828
    10  H    2.242966   3.325074   3.268449   2.143292   1.080495
                    6          7          8          9         10
     6  H    0.000000
     7  H    2.722099   0.000000
     8  H    4.350246   2.723364   0.000000
     9  H    4.205911   4.205911   2.514776   0.000000
    10  H    2.723364   4.350246   4.227594   2.514776   0.000000
 Stoichiometry    C4H5N
 Framework group  C1[X(C4H5N)]
 Deg. of freedom    24
 Full point group                 C1      NOp   1
 RotChk:  IX=2 Diff= 1.45D-13
 Largest Abelian subgroup         C1      NOp   1
 Largest concise Abelian subgroup C1      NOp   1
                         Standard orientation:                         
 ---------------------------------------------------------------------
 Center     Atomic      Atomic             Coordinates (Angstroms)
 Number     Number       Type             X           Y           Z
 ---------------------------------------------------------------------
      1          6           0       -0.983483   -0.712606    0.000002
      2          6           0       -0.983483    0.712606    0.000000
      3          6           0        0.331500    1.125379   -0.000003
      4          7           0        1.122310    0.000000    0.000004
      5          6           0        0.331500   -1.125379   -0.000003
      6          1           0       -1.849304   -1.361049    0.000003
      7          1           0       -1.849303    1.361050    0.000001
      8          1           0        0.767963    2.113797   -0.000004
      9          1           0        2.130299   -0.000001    0.000005
     10          1           0        0.767962   -2.113797   -0.000006
 ---------------------------------------------------------------------
 Rotational constants (GHZ):      9.1350678      9.0013288      4.5338526
 Leave Link  202 at Thu Mar 19 18:17:15 2026, MaxMem=   536870912 cpu:         0.0
 (Enter C:\G09W\l601.exe)
 Copying SCF densities to generalized density rwf, IOpCl= 0 IROHF=0.

 **********************************************************************

            Population analysis using the SCF density.

 **********************************************************************

 Orbital symmetries:
       Occupied  (A) (A) (A) (A) (A) (A) (A) (A) (A) (A) (A) (A)
                 (A) (A) (A) (A) (A) (A)
       Virtual   (A) (A) (A) (A) (A) (A) (A) (A) (A) (A) (A) (A)
                 (A) (A) (A) (A) (A) (A) (A) (A) (A) (A) (A) (A)
                 (A) (A) (A) (A) (A) (A) (A) (A) (A) (A) (A) (A)
                 (A) (A) (A) (A) (A) (A) (A) (A) (A) (A) (A) (A)
                 (A) (A) (A) (A) (A) (A) (A) (A) (A) (A) (A) (A)
                 (A) (A) (A) (A) (A) (A) (A)
 The electronic state is 1-A.
 Alpha  occ. eigenvalues --  -14.37347 -10.19681 -10.19680 -10.16047 -10.16003
 Alpha  occ. eigenvalues --   -0.96384  -0.76100  -0.70959  -0.58146  -0.55474
 Alpha  occ. eigenvalues --   -0.53575  -0.42105  -0.41502  -0.39356  -0.37997
 Alpha  occ. eigenvalues --   -0.36466  -0.23223  -0.20151
 Alpha virt. eigenvalues --    0.05095   0.07929   0.09688   0.14138   0.16480
 Alpha virt. eigenvalues --    0.17224   0.18334   0.24166   0.24556   0.34151
 Alpha virt. eigenvalues --    0.37223   0.45563   0.54420   0.55797   0.58209
 Alpha virt. eigenvalues --    0.60575   0.60923   0.61842   0.63401   0.63653
 Alpha virt. eigenvalues --    0.65161   0.69692   0.77708   0.81952   0.83373
 Alpha virt. eigenvalues --    0.86073   0.86564   0.91893   0.93068   0.94026
 Alpha virt. eigenvalues --    0.99116   1.14477   1.16636   1.25449   1.29368
 Alpha virt. eigenvalues --    1.34990   1.37440   1.40142   1.49888   1.50902
 Alpha virt. eigenvalues --    1.55502   1.55726   1.79902   1.88335   1.99899
 Alpha virt. eigenvalues --    2.01553   2.05287   2.11540   2.21868   2.24446
 Alpha virt. eigenvalues --    2.25872   2.26650   2.33609   2.34360   2.56165
 Alpha virt. eigenvalues --    2.60359   2.64022   2.69799   2.69876   2.97049
 Alpha virt. eigenvalues --    3.00901   3.02035   3.91290   4.12975   4.14050
 Alpha virt. eigenvalues --    4.34838   4.47819
          Condensed to atoms (all electrons):
               1          2          3          4          5          6
     1  C    4.865956   0.527793  -0.038486  -0.062899   0.581903   0.371898
     2  C    0.527793   4.865956   0.581903  -0.062899  -0.038486  -0.043435
     3  C   -0.038486   0.581903   4.881000   0.372326  -0.122309   0.007022
     4  N   -0.062899  -0.062899   0.372326   6.700759   0.372326   0.005035
     5  C    0.581903  -0.038486  -0.122309   0.372326   4.881000  -0.051867
     6  H    0.371898  -0.043435   0.007022   0.005035  -0.051867   0.596499
     7  H   -0.043435   0.371898  -0.051867   0.005035   0.007022  -0.003491
     8  H    0.004130  -0.038604   0.370966  -0.051828   0.006324  -0.000143
     9  H    0.006302   0.006302  -0.032432   0.322379  -0.032432  -0.000144
    10  H   -0.038604   0.004130   0.006324  -0.051828   0.370966  -0.001972
               7          8          9         10
     1  C   -0.043435   0.004130   0.006302  -0.038604
     2  C    0.371898  -0.038604   0.006302   0.004130
     3  C   -0.051867   0.370966  -0.032432   0.006324
     4  N    0.005035  -0.051828   0.322379  -0.051828
     5  C    0.007022   0.006324  -0.032432   0.370966
     6  H   -0.003491  -0.000143  -0.000144  -0.001972
     7  H    0.596499  -0.001972  -0.000144  -0.000143
     8  H   -0.001972   0.575702  -0.002740  -0.000123
     9  H   -0.000144  -0.002740   0.406996  -0.002740
    10  H   -0.000143  -0.000123  -0.002740   0.575702
 Mulliken charges:
               1
     1  C   -0.174559
     2  C   -0.174559
     3  C    0.025552
     4  N   -0.548408
     5  C    0.025552
     6  H    0.120597
     7  H    0.120597
     8  H    0.138288
     9  H    0.328651
    10  H    0.138288
 Sum of Mulliken charges =   0.00000
 Mulliken charges with hydrogens summed into heavy atoms:
               1
     1  C   -0.053962
     2  C   -0.053962
     3  C    0.163840
     4  N   -0.219757
     5  C    0.163840
 Electronic spatial extent (au):  <R**2>=            304.9754
 Charge=              0.0000 electrons
 Dipole moment (field-independent basis, Debye):
    X=              1.9103    Y=              0.0000    Z=              0.0000  Tot=              1.9103
 Quadrupole moment (field-independent basis, Debye-Ang):
   XX=            -23.1958   YY=            -26.3881   ZZ=            -32.8825
   XY=              0.0000   XZ=              0.0000   YZ=              0.0000
 Traceless Quadrupole moment (field-independent basis, Debye-Ang):
   XX=              4.2930   YY=              1.1007   ZZ=             -5.3937
   XY=              0.0000   XZ=              0.0000   YZ=              0.0000
 Octapole moment (field-independent basis, Debye-Ang**2):
  XXX=             12.5020  YYY=              0.0000  ZZZ=              0.0000  XYY=              2.6314
  XXY=              0.0000  XXZ=              0.0001  XZZ=              1.9553  YZZ=              0.0000
  YYZ=              0.0000  XYZ=              0.0000
 Hexadecapole moment (field-independent basis, Debye-Ang**3):
 XXXX=           -147.8265 YYYY=           -174.4319 ZZZZ=            -33.4303 XXXY=              0.0000
 XXXZ=              0.0001 YYYX=              0.0000 YYYZ=              0.0000 ZZZX=              0.0000
 ZZZY=              0.0000 XXYY=            -55.4011 XXZZ=            -39.1161 YYZZ=            -41.5852
 XXYZ=              0.0000 YYXZ=              0.0000 ZZXY=              0.0000
 N-N= 1.607214312067D+02 E-N=-8.089509479071D+02  KE= 2.081094612274D+02
 No NMR shielding tensors so no spin-rotation constants.
 Leave Link  601 at Thu Mar 19 18:17:15 2026, MaxMem=   536870912 cpu:         0.0
 (Enter C:\G09W\l9999.exe)
 1|1|UNPC-DESKTOP-GS7R1K3|FOpt|RB3LYP|6-31G(d)|C4H5N1|1172|19-Mar-2026|
 0||#p opt B3LYP/6-31G(d)||pyrrole||0,1|C,0.3077739324,1.1549692075,0.0
 687385353|C,1.1964024678,0.0419470596,0.0162854968|C,0.4258043867,-1.0
 983894779,-0.0570131519|N,-0.8940782092,-0.7114438831,-0.0505330392|C,
 -0.977556981,0.6593443489,0.0258201893|H,0.5803056757,2.1999529145,0.1
 308620705|H,2.277550569,0.0741252003,0.0306794597|H,0.700892035,-2.141
 7963536,-0.1126763085|H,-1.6820555496,-1.3384601677,-0.0950708606|H,-1
 .9350383267,1.1597511516,0.0429086085||Version=EM64W-G09RevD.01|State=
 1-A|HF=-210.1658908|RMSD=9.304e-009|RMSF=4.354e-005|Dipole=-0.587524,-
 0.4675097,-0.0332088|Quadrupole=2.2680953,1.7214026,-3.989498,1.150964
 2,0.1379698,0.3367241|PG=C01 [X(C4H5N1)]||@


 IF YOU GIVE EVERYONE A PIECE OF YOUR MIND,
 PRETTY SOON IT WILL BE ALL GONE.
 Job cpu time:       0 days  0 hours  0 minutes 53.0 seconds.
 File lengths (MBytes):  RWF=      6 Int=      0 D2E=      0 Chk=      2 Scr=      1
 Normal termination of Gaussian 09 at Thu Mar 19 18:17:16 2026.
