 Entering Gaussian System, Link 0=C:\G09W\g09.exe
 Input=ethylene_rdkit.com
 Output=C:\workspace\delta_chem\data\raw\ethylene\ethylene_rdkit.out
 Initial command:
 C:\G09W\l1.exe ".\Gau-8508.inp" "C:\workspace\delta_chem\data\raw\ethylene\ethylene_rdkit.out" /scrdir=".\"
 Entering Link 1 = C:\G09W\l1.exe PID=     20924.
  
 Copyright (c) 1988,1990,1992,1993,1995,1998,2003,2009,2013,
            Gaussian, Inc.  All Rights Reserved.
  
 This is part of the Gaussian(R) 09 program.  It is based on
 the Gaussian(R) 03 system (copyright 2003, Gaussian, Inc.),
 the Gaussian(R) 98 system (copyright 1998, Gaussian, Inc.),
 the Gaussian(R) 94 system (copyright 1995, Gaussian, Inc.),
 the Gaussian 92(TM) system (copyright 1992, Gaussian, Inc.),
 the Gaussian 90(TM) system (copyright 1990, Gaussian, Inc.),
 the Gaussian 88(TM) system (copyright 1988, Gaussian, Inc.),
 the Gaussian 86(TM) system (copyright 1986, Carnegie Mellon
 University), and the Gaussian 82(TM) system (copyright 1983,
 Carnegie Mellon University). Gaussian is a federally registered
 trademark of Gaussian, Inc.
  
 This software contains proprietary and confidential information,
 including trade secrets, belonging to Gaussian, Inc.
  
 This software is provided under written license and may be
 used, copied, transmitted, or stored only in accord with that
 written license.
  
 The following legend is applicable only to US Government
 contracts under FAR:
  
                    RESTRICTED RIGHTS LEGEND
  
 Use, reproduction and disclosure by the US Government is
 subject to restrictions as set forth in subparagraphs (a)
 and (c) of the Commercial Computer Software - Restricted
 Rights clause in FAR 52.227-19.
  
 Gaussian, Inc.
 340 Quinnipiac St., Bldg. 40, Wallingford CT 06492
  
  
 ---------------------------------------------------------------
 Warning -- This program may not be used in any manner that
 competes with the business of Gaussian, Inc. or will provide
 assistance to any competitor of Gaussian, Inc.  The licensee
 of this program is prohibited from giving any competitor of
 Gaussian, Inc. access to this program.  By using this program,
 the user acknowledges that Gaussian, Inc. is engaged in the
 business of creating and licensing software in the field of
 computational chemistry and represents and warrants to the
 licensee that it is not a competitor of Gaussian, Inc. and that
 it will not use this program in any manner prohibited above.
 ---------------------------------------------------------------
  

 Cite this work as:
 Gaussian 09, Revision D.01,
 M. J. Frisch, G. W. Trucks, H. B. Schlegel, G. E. Scuseria, 
 M. A. Robb, J. R. Cheeseman, G. Scalmani, V. Barone, B. Mennucci, 
 G. A. Petersson, H. Nakatsuji, M. Caricato, X. Li, H. P. Hratchian, 
 A. F. Izmaylov, J. Bloino, G. Zheng, J. L. Sonnenberg, M. Hada, 
 M. Ehara, K. Toyota, R. Fukuda, J. Hasegawa, M. Ishida, T. Nakajima, 
 Y. Honda, O. Kitao, H. Nakai, T. Vreven, J. A. Montgomery, Jr., 
 J. E. Peralta, F. Ogliaro, M. Bearpark, J. J. Heyd, E. Brothers, 
 K. N. Kudin, V. N. Staroverov, T. Keith, R. Kobayashi, J. Normand, 
 K. Raghavachari, A. Rendell, J. C. Burant, S. S. Iyengar, J. Tomasi, 
 M. Cossi, N. Rega, J. M. Millam, M. Klene, J. E. Knox, J. B. Cross, 
 V. Bakken, C. Adamo, J. Jaramillo, R. Gomperts, R. E. Stratmann, 
 O. Yazyev, A. J. Austin, R. Cammi, C. Pomelli, J. W. Ochterski, 
 R. L. Martin, K. Morokuma, V. G. Zakrzewski, G. A. Voth, 
 P. Salvador, J. J. Dannenberg, S. Dapprich, A. D. Daniels, 
 O. Farkas, J. B. Foresman, J. V. Ortiz, J. Cioslowski, 
 and D. J. Fox, Gaussian, Inc., Wallingford CT, 2013.
 
 ******************************************
 Gaussian 09:  EM64W-G09RevD.01 13-Apr-2013
                19-Mar-2026 
 ******************************************
 %NProcShared=4
 Will use up to    4 processors via shared memory.
 %Mem=4GB
 %Chk=ethylene_rdkit.chk
 ---------------------
 #p opt B3LYP/6-31G(d)
 ---------------------
 1/14=-1,18=20,19=15,26=3,38=1/1,3;
 2/9=110,12=2,17=6,18=5,40=1/2;
 3/5=1,6=6,7=1,11=2,16=1,25=1,30=1,71=1,74=-5/1,2,3;
 4//1;
 5/5=2,38=5/2;
 6/7=2,8=2,9=2,10=2,28=1/1;
 7//1,2,3,16;
 1/14=-1,18=20,19=15,26=3/3(2);
 2/9=110/2;
 99//99;
 2/9=110/2;
 3/5=1,6=6,7=1,11=2,16=1,25=1,30=1,71=1,74=-5/1,2,3;
 4/5=5,16=3,69=1/1;
 5/5=2,38=5/2;
 7//1,2,3,16;
 1/14=-1,18=20,19=15,26=3/3(-5);
 2/9=110/2;
 6/7=2,8=2,9=2,10=2,19=2,28=1/1;
 99/9=1/99;
 Leave Link    1 at Thu Mar 19 18:09:18 2026, MaxMem=   536870912 cpu:         1.0
 (Enter C:\G09W\l101.exe)
 --------
 ethylene
 --------
 Symbolic Z-matrix:
 Charge =  0 Multiplicity = 1
 C                    -0.66681  -0.03752  -0.00648 
 C                     0.66681   0.03752   0.00648 
 H                    -1.26841   0.76078  -0.42969 
 H                    -1.18316  -0.89871   0.40586 
 H                     1.26841  -0.76078   0.42969 
 H                     1.18316   0.89871  -0.40586 
 
 NAtoms=      6 NQM=        6 NQMF=       0 NMMI=      0 NMMIF=      0
                NMic=       0 NMicF=      0.
                    Isotopes and Nuclear Properties:
 (Nuclear quadrupole moments (NQMom) in fm**2, nuclear magnetic moments (NMagM)
  in nuclear magnetons)

  Atom         1           2           3           4           5           6
 IAtWgt=          12          12           1           1           1           1
 AtmWgt=  12.0000000  12.0000000   1.0078250   1.0078250   1.0078250   1.0078250
 NucSpn=           0           0           1           1           1           1
 AtZEff=   0.0000000   0.0000000   0.0000000   0.0000000   0.0000000   0.0000000
 NQMom=    0.0000000   0.0000000   0.0000000   0.0000000   0.0000000   0.0000000
 NMagM=    0.0000000   0.0000000   2.7928460   2.7928460   2.7928460   2.7928460
 AtZNuc=   6.0000000   6.0000000   1.0000000   1.0000000   1.0000000   1.0000000
 Leave Link  101 at Thu Mar 19 18:09:18 2026, MaxMem=   536870912 cpu:         0.0
 (Enter C:\G09W\l103.exe)

 GradGradGradGradGradGradGradGradGradGradGradGradGradGradGradGradGradGrad
 Berny optimization.
 Initialization pass.
                           ----------------------------
                           !    Initial Parameters    !
                           ! (Angstroms and Degrees)  !
 --------------------------                            --------------------------
 ! Name  Definition              Value          Derivative Info.                !
 --------------------------------------------------------------------------------
 ! R1    R(1,2)                  1.3358         estimate D2E/DX2                !
 ! R2    R(1,3)                  1.0855         estimate D2E/DX2                !
 ! R3    R(1,4)                  1.0855         estimate D2E/DX2                !
 ! R4    R(2,5)                  1.0855         estimate D2E/DX2                !
 ! R5    R(2,6)                  1.0855         estimate D2E/DX2                !
 ! A1    A(2,1,3)              121.0503         estimate D2E/DX2                !
 ! A2    A(2,1,4)              121.0502         estimate D2E/DX2                !
 ! A3    A(3,1,4)              117.8995         estimate D2E/DX2                !
 ! A4    A(1,2,5)              121.0503         estimate D2E/DX2                !
 ! A5    A(1,2,6)              121.0502         estimate D2E/DX2                !
 ! A6    A(5,2,6)              117.8995         estimate D2E/DX2                !
 ! D1    D(3,1,2,5)            180.0            estimate D2E/DX2                !
 ! D2    D(3,1,2,6)              0.0001         estimate D2E/DX2                !
 ! D3    D(4,1,2,5)             -0.0001         estimate D2E/DX2                !
 ! D4    D(4,1,2,6)            180.0            estimate D2E/DX2                !
 --------------------------------------------------------------------------------
 Trust Radius=3.00D-01 FncErr=1.00D-07 GrdErr=1.00D-06
 Number of steps in this run=     25 maximum allowed number of steps=    100.
 GradGradGradGradGradGradGradGradGradGradGradGradGradGradGradGradGradGrad

 Leave Link  103 at Thu Mar 19 18:09:18 2026, MaxMem=   536870912 cpu:         0.0
 (Enter C:\G09W\l202.exe)
                          Input orientation:                          
 ---------------------------------------------------------------------
 Center     Atomic      Atomic             Coordinates (Angstroms)
 Number     Number       Type             X           Y           Z
 ---------------------------------------------------------------------
      1          6           0       -0.666808   -0.037516   -0.006481
      2          6           0        0.666808    0.037516    0.006481
      3          1           0       -1.268406    0.760775   -0.429687
      4          1           0       -1.183160   -0.898707    0.405858
      5          1           0        1.268406   -0.760775    0.429687
      6          1           0        1.183160    0.898707   -0.405858
 ---------------------------------------------------------------------
                    Distance matrix (angstroms):
                    1          2          3          4          5
     1  C    0.000000
     2  C    1.335788   0.000000
     3  H    1.085492   2.111492   0.000000
     4  H    1.085492   2.111492   1.859915   0.000000
     5  H    2.111492   1.085492   3.080431   2.455559   0.000000
     6  H    2.111492   1.085492   2.455559   3.080430   1.859915
                    6
     6  H    0.000000
 Stoichiometry    C2H4
 Framework group  D2H[C2(C.C),SG"(H4)]
 Deg. of freedom     3
 Full point group                 D2H     NOp   8
 Largest Abelian subgroup         D2H     NOp   8
 Largest concise Abelian subgroup D2      NOp   4
                         Standard orientation:                         
 ---------------------------------------------------------------------
 Center     Atomic      Atomic             Coordinates (Angstroms)
 Number     Number       Type             X           Y           Z
 ---------------------------------------------------------------------
      1          6           0       -0.667894    0.000000    0.000000
      2          6           0        0.667894    0.000000    0.000000
      3          1           0       -1.227780    0.929957    0.000000
      4          1           0       -1.227780   -0.929957    0.000000
      5          1           0        1.227780   -0.929957    0.000000
      6          1           0        1.227780    0.929957    0.000000
 ---------------------------------------------------------------------
 Rotational constants (GHZ):    144.9594085     30.1126737     24.9332464
 Leave Link  202 at Thu Mar 19 18:09:19 2026, MaxMem=   536870912 cpu:         0.0
 (Enter C:\G09W\l301.exe)
 Standard basis: 6-31G(d) (6D, 7F)
 Ernie: Thresh=  0.10000D-02 Tol=  0.10000D-05 Strict=F.
 There are    10 symmetry adapted cartesian basis functions of AG  symmetry.
 There are     5 symmetry adapted cartesian basis functions of B1G symmetry.
 There are     3 symmetry adapted cartesian basis functions of B2G symmetry.
 There are     1 symmetry adapted cartesian basis functions of B3G symmetry.
 There are     1 symmetry adapted cartesian basis functions of AU  symmetry.
 There are     3 symmetry adapted cartesian basis functions of B1U symmetry.
 There are     5 symmetry adapted cartesian basis functions of B2U symmetry.
 There are    10 symmetry adapted cartesian basis functions of B3U symmetry.
 There are    10 symmetry adapted basis functions of AG  symmetry.
 There are     5 symmetry adapted basis functions of B1G symmetry.
 There are     3 symmetry adapted basis functions of B2G symmetry.
 There are     1 symmetry adapted basis functions of B3G symmetry.
 There are     1 symmetry adapted basis functions of AU  symmetry.
 There are     3 symmetry adapted basis functions of B1U symmetry.
 There are     5 symmetry adapted basis functions of B2U symmetry.
 There are    10 symmetry adapted basis functions of B3U symmetry.
    38 basis functions,    72 primitive gaussians,    38 cartesian basis functions
     8 alpha electrons        8 beta electrons
       nuclear repulsion energy        33.3199650558 Hartrees.
 IExCor=  402 DFT=T Ex+Corr=B3LYP ExCW=0 ScaHFX=  0.200000
 ScaDFX=  0.800000  0.720000  1.000000  0.810000 ScalE2=  1.000000  1.000000
 IRadAn=      0 IRanWt=     -1 IRanGd=            0 ICorTp=0 IEmpDi=  4
 NAtoms=    6 NActive=    6 NUniq=    2 SFac= 4.00D+00 NAtFMM=   60 NAOKFM=F Big=F
 Integral buffers will be    131072 words long.
 Raffenetti 2 integral format.
 Two-electron integral symmetry is turned on.
 Leave Link  301 at Thu Mar 19 18:09:19 2026, MaxMem=   536870912 cpu:         0.0
 (Enter C:\G09W\l302.exe)
 NPDir=0 NMtPBC=     1 NCelOv=     1 NCel=       1 NClECP=     1 NCelD=      1
         NCelK=      1 NCelE2=     1 NClLst=     1 CellRange=     0.0.
 One-electron integrals computed using PRISM.
 One-electron integral symmetry used in STVInt
 NBasis=    38 RedAO= T EigKep=  1.08D-02  NBF=    10     5     3     1     1     3     5    10
 NBsUse=    38 1.00D-06 EigRej= -1.00D+00 NBFU=    10     5     3     1     1     3     5    10
 Precomputing XC quadrature grid using
 IXCGrd= 4 IRadAn=           0 IRanWt=          -1 IRanGd=           0 AccXCQ= 0.00D+00.
 Generated NRdTot=       0 NPtTot=           0 NUsed=           0 NTot=          32
 NSgBfM=    38    38    38    38    38 MxSgAt=     6 MxSgA2=     6.
 Leave Link  302 at Thu Mar 19 18:09:19 2026, MaxMem=   536870912 cpu:         0.0
 (Enter C:\G09W\l303.exe)
 DipDrv:  MaxL=1.
 Leave Link  303 at Thu Mar 19 18:09:19 2026, MaxMem=   536870912 cpu:         0.0
 (Enter C:\G09W\l401.exe)
 ExpMin= 1.61D-01 ExpMax= 3.05D+03 ExpMxC= 4.57D+02 IAcc=1 IRadAn=         1 AccDes= 0.00D+00
 Harris functional with IExCor=  402 and IRadAn=       1 diagonalized for initial guess.
 HarFok:  IExCor=  402 AccDes= 0.00D+00 IRadAn=         1 IDoV= 1 UseB2=F ITyADJ=14
 ICtDFT=  3500011 ScaDFX=  1.000000  1.000000  1.000000  1.000000
 FoFCou: FMM=F IPFlag=           0 FMFlag=      100000 FMFlg1=           0
         NFxFlg=           0 DoJE=T BraDBF=F KetDBF=T FulRan=T
         wScrn=  0.000000 ICntrl=     500 IOpCl=  0 I1Cent=   200000004 NGrid=           0
         NMat0=    1 NMatS0=      1 NMatT0=    0 NMatD0=    1 NMtDS0=    0 NMtDT0=    0
 Petite list used in FoFCou.
 Harris En= -78.6243391582133    
 JPrj=0 DoOrth=F DoCkMO=F.
 Initial guess orbital symmetries:
       Occupied  (AG) (B3U) (AG) (B3U) (B2U) (AG) (B1G) (B1U)
       Virtual   (B2G) (AG) (B2U) (B3U) (B1G) (B3U) (AG) (B1U)
                 (B2U) (B2G) (B3U) (AG) (B2U) (B1G) (B3U) (AG)
                 (B3U) (B1G) (B1U) (B3G) (AU) (AG) (B2U) (AG) (B3U)
                 (B2G) (B1G) (B3U) (AG) (B3U)
 The electronic state of the initial guess is 1-AG.
 Leave Link  401 at Thu Mar 19 18:09:19 2026, MaxMem=   536870912 cpu:         0.0
 (Enter C:\G09W\l502.exe)
 Closed shell SCF:
 Using DIIS extrapolation, IDIIS=  1040.
 Integral symmetry usage will be decided dynamically.
 Keep R1 ints in memory in symmetry-blocked form, NReq=1162459.
 IVT=       23658 IEndB=       23658 NGot=   536870912 MDV=   536803898
 LenX=   536803898 LenY=   536802013
 Requested convergence on RMS density matrix=1.00D-08 within 128 cycles.
 Requested convergence on MAX density matrix=1.00D-06.
 Requested convergence on             energy=1.00D-06.
 No special actions if energy rises.
 FoFCou: FMM=F IPFlag=           0 FMFlag=           0 FMFlg1=           0
         NFxFlg=           0 DoJE=F BraDBF=F KetDBF=F FulRan=T
         wScrn=  0.000000 ICntrl=     600 IOpCl=  0 I1Cent=           0 NGrid=           0
         NMat0=    1 NMatS0=    741 NMatT0=    0 NMatD0=    1 NMtDS0=    0 NMtDT0=    0
 Petite list used in FoFCou.
 Integral accuracy reduced to 1.0D-05 until final iterations.

 Cycle   1  Pass 0  IDiag  1:
 E= -78.4989949426788    
 DIIS: error= 5.49D-02 at cycle   1 NSaved=   1.
 NSaved= 1 IEnMin= 1 EnMin= -78.4989949426788     IErMin= 1 ErrMin= 5.49D-02
 ErrMax= 5.49D-02  0.00D+00 EMaxC= 1.00D-01 BMatC= 7.63D-02 BMatP= 7.63D-02
 IDIUse=3 WtCom= 4.51D-01 WtEn= 5.49D-01
 Coeff-Com:  0.100D+01
 Coeff-En:   0.100D+01
 Coeff:      0.100D+01
 Gap=     0.278 Goal=   None    Shift=    0.000
 GapD=    0.278 DampG=1.000 DampE=0.500 DampFc=0.5000 IDamp=-1.
 Damping current iteration by 5.00D-01
 RMSDP=1.45D-02 MaxDP=1.25D-01              OVMax= 1.64D-01

 Cycle   2  Pass 0  IDiag  1:
 E= -78.5420895906076     Delta-E=       -0.043094647929 Rises=F Damp=T
 DIIS: error= 1.01D-02 at cycle   2 NSaved=   2.
 NSaved= 2 IEnMin= 2 EnMin= -78.5420895906076     IErMin= 2 ErrMin= 1.01D-02
 ErrMax= 1.01D-02  0.00D+00 EMaxC= 1.00D-01 BMatC= 1.96D-03 BMatP= 7.63D-02
 IDIUse=3 WtCom= 8.99D-01 WtEn= 1.01D-01
 Coeff-Com:  0.155D-01 0.985D+00
 Coeff-En:   0.504D-02 0.995D+00
 Coeff:      0.144D-01 0.986D+00
 Gap=     0.287 Goal=   None    Shift=    0.000
 RMSDP=1.51D-03 MaxDP=8.50D-03 DE=-4.31D-02 OVMax= 8.31D-02

 Cycle   3  Pass 0  IDiag  1:
 E= -78.5872589847464     Delta-E=       -0.045169394139 Rises=F Damp=F
 DIIS: error= 1.10D-03 at cycle   3 NSaved=   3.
 NSaved= 3 IEnMin= 3 EnMin= -78.5872589847464     IErMin= 3 ErrMin= 1.10D-03
 ErrMax= 1.10D-03  0.00D+00 EMaxC= 1.00D-01 BMatC= 1.83D-05 BMatP= 1.96D-03
 IDIUse=3 WtCom= 9.89D-01 WtEn= 1.10D-02
 Coeff-Com: -0.838D-02 0.403D-01 0.968D+00
 Coeff-En:   0.000D+00 0.000D+00 0.100D+01
 Coeff:     -0.829D-02 0.399D-01 0.968D+00
 Gap=     0.284 Goal=   None    Shift=    0.000
 RMSDP=1.25D-04 MaxDP=1.12D-03 DE=-4.52D-02 OVMax= 2.12D-03

 Cycle   4  Pass 0  IDiag  1:
 E= -78.5872776749798     Delta-E=       -0.000018690233 Rises=F Damp=F
 DIIS: error= 2.17D-04 at cycle   4 NSaved=   4.
 NSaved= 4 IEnMin= 4 EnMin= -78.5872776749798     IErMin= 4 ErrMin= 2.17D-04
 ErrMax= 2.17D-04  0.00D+00 EMaxC= 1.00D-01 BMatC= 7.92D-07 BMatP= 1.83D-05
 IDIUse=3 WtCom= 9.98D-01 WtEn= 2.17D-03
 Coeff-Com: -0.155D-02 0.342D-02 0.197D+00 0.801D+00
 Coeff-En:   0.000D+00 0.000D+00 0.000D+00 0.100D+01
 Coeff:     -0.155D-02 0.341D-02 0.197D+00 0.802D+00
 Gap=     0.284 Goal=   None    Shift=    0.000
 RMSDP=2.44D-05 MaxDP=2.07D-04 DE=-1.87D-05 OVMax= 2.46D-04

 Cycle   5  Pass 0  IDiag  1:
 E= -78.5872784107418     Delta-E=       -0.000000735762 Rises=F Damp=F
 DIIS: error= 1.05D-05 at cycle   5 NSaved=   5.
 NSaved= 5 IEnMin= 5 EnMin= -78.5872784107418     IErMin= 5 ErrMin= 1.05D-05
 ErrMax= 1.05D-05  0.00D+00 EMaxC= 1.00D-01 BMatC= 4.11D-09 BMatP= 7.92D-07
 IDIUse=1 WtCom= 1.00D+00 WtEn= 0.00D+00
 Coeff-Com:  0.758D-04-0.703D-03 0.874D-03 0.551D-01 0.945D+00
 Coeff:      0.758D-04-0.703D-03 0.874D-03 0.551D-01 0.945D+00
 Gap=     0.284 Goal=   None    Shift=    0.000
 RMSDP=1.70D-06 MaxDP=1.38D-05 DE=-7.36D-07 OVMax= 2.49D-05

 Initial convergence to 1.0D-05 achieved.  Increase integral accuracy.
 Cycle   6  Pass 1  IDiag  1:
 E= -78.5873019472149     Delta-E=       -0.000023536473 Rises=F Damp=F
 DIIS: error= 4.86D-06 at cycle   1 NSaved=   1.
 NSaved= 1 IEnMin= 1 EnMin= -78.5873019472149     IErMin= 1 ErrMin= 4.86D-06
 ErrMax= 4.86D-06  0.00D+00 EMaxC= 1.00D-01 BMatC= 2.96D-10 BMatP= 2.96D-10
 IDIUse=1 WtCom= 1.00D+00 WtEn= 0.00D+00
 Coeff-Com:  0.100D+01
 Coeff:      0.100D+01
 Gap=     0.284 Goal=   None    Shift=    0.000
 RMSDP=1.70D-06 MaxDP=1.38D-05 DE=-2.35D-05 OVMax= 1.17D-05

 Cycle   7  Pass 1  IDiag  1:
 E= -78.5873019476139     Delta-E=       -0.000000000399 Rises=F Damp=F
 DIIS: error= 4.72D-07 at cycle   2 NSaved=   2.
 NSaved= 2 IEnMin= 2 EnMin= -78.5873019476139     IErMin= 2 ErrMin= 4.72D-07
 ErrMax= 4.72D-07  0.00D+00 EMaxC= 1.00D-01 BMatC= 6.79D-12 BMatP= 2.96D-10
 IDIUse=1 WtCom= 1.00D+00 WtEn= 0.00D+00
 Coeff-Com: -0.350D-01 0.104D+01
 Coeff:     -0.350D-01 0.104D+01
 Gap=     0.284 Goal=   None    Shift=    0.000
 RMSDP=1.03D-07 MaxDP=1.18D-06 DE=-3.99D-10 OVMax= 1.56D-06

 Cycle   8  Pass 1  IDiag  1:
 E= -78.5873019476164     Delta-E=       -0.000000000003 Rises=F Damp=F
 DIIS: error= 4.08D-07 at cycle   3 NSaved=   3.
 NSaved= 3 IEnMin= 3 EnMin= -78.5873019476164     IErMin= 3 ErrMin= 4.08D-07
 ErrMax= 4.08D-07  0.00D+00 EMaxC= 1.00D-01 BMatC= 5.10D-12 BMatP= 6.79D-12
 IDIUse=1 WtCom= 1.00D+00 WtEn= 0.00D+00
 Coeff-Com: -0.284D-01 0.494D+00 0.534D+00
 Coeff:     -0.284D-01 0.494D+00 0.534D+00
 Gap=     0.284 Goal=   None    Shift=    0.000
 RMSDP=5.91D-08 MaxDP=5.10D-07 DE=-2.59D-12 OVMax= 6.87D-07

 Cycle   9  Pass 1  IDiag  1:
 E= -78.5873019476218     Delta-E=       -0.000000000005 Rises=F Damp=F
 DIIS: error= 3.26D-08 at cycle   4 NSaved=   4.
 NSaved= 4 IEnMin= 4 EnMin= -78.5873019476218     IErMin= 4 ErrMin= 3.26D-08
 ErrMax= 3.26D-08  0.00D+00 EMaxC= 1.00D-01 BMatC= 2.37D-14 BMatP= 5.10D-12
 IDIUse=1 WtCom= 1.00D+00 WtEn= 0.00D+00
 Coeff-Com: -0.247D-02 0.301D-01 0.836D-01 0.889D+00
 Coeff:     -0.247D-02 0.301D-01 0.836D-01 0.889D+00
 Gap=     0.284 Goal=   None    Shift=    0.000
 RMSDP=4.19D-09 MaxDP=4.27D-08 DE=-5.33D-12 OVMax= 5.61D-08

 SCF Done:  E(RB3LYP) =  -78.5873019476     A.U. after    9 cycles
            NFock=  9  Conv=0.42D-08     -V/T= 2.0105
 KE= 7.776942741619D+01 PE=-2.480275257369D+02 EE= 5.835083131727D+01
 Leave Link  502 at Thu Mar 19 18:09:20 2026, MaxMem=   536870912 cpu:         0.0
 (Enter C:\G09W\l601.exe)
 Copying SCF densities to generalized density rwf, IOpCl= 0 IROHF=0.

 **********************************************************************

            Population analysis using the SCF density.

 **********************************************************************

 Orbital symmetries:
       Occupied  (AG) (B3U) (AG) (B3U) (B2U) (AG) (B1G) (B1U)
       Virtual   (B2G) (AG) (B2U) (B3U) (B1G) (B3U) (AG) (B1U)
                 (B2U) (B2G) (AG) (B3U) (B2U) (B1G) (B3U) (AG)
                 (B3U) (B1G) (B1U) (B3G) (AU) (AG) (B2U) (AG) (B3U)
                 (B2G) (B1G) (B3U) (AG) (B3U)
 The electronic state is 1-AG.
 Alpha  occ. eigenvalues --  -10.18397 -10.18310  -0.75431  -0.57645  -0.46721
 Alpha  occ. eigenvalues --   -0.41256  -0.35577  -0.26566
 Alpha virt. eigenvalues --    0.01807   0.12073   0.14220   0.15911   0.24380
 Alpha virt. eigenvalues --    0.32844   0.48049   0.54930   0.57308   0.63717
 Alpha virt. eigenvalues --    0.65228   0.69761   0.85036   0.87377   0.92977
 Alpha virt. eigenvalues --    0.93968   1.10450   1.23286   1.46224   1.54586
 Alpha virt. eigenvalues --    1.82997   1.89632   1.98535   2.08888   2.29665
 Alpha virt. eigenvalues --    2.38239   2.68028   2.70075   4.09563   4.24801
          Condensed to atoms (all electrons):
               1          2          3          4          5          6
     1  C    4.917997   0.683891   0.378097   0.378097  -0.036151  -0.036151
     2  C    0.683891   4.917997  -0.036151  -0.036151   0.378097   0.378097
     3  H    0.378097  -0.036151   0.560752  -0.041915   0.005215  -0.008889
     4  H    0.378097  -0.036151  -0.041915   0.560752  -0.008889   0.005215
     5  H   -0.036151   0.378097   0.005215  -0.008889   0.560752  -0.041915
     6  H   -0.036151   0.378097  -0.008889   0.005215  -0.041915   0.560752
 Mulliken charges:
               1
     1  C   -0.285781
     2  C   -0.285781
     3  H    0.142890
     4  H    0.142890
     5  H    0.142890
     6  H    0.142890
 Sum of Mulliken charges =   0.00000
 Mulliken charges with hydrogens summed into heavy atoms:
               1
     1  C    0.000000
     2  C    0.000000
 Electronic spatial extent (au):  <R**2>=             82.1247
 Charge=              0.0000 electrons
 Dipole moment (field-independent basis, Debye):
    X=              0.0000    Y=              0.0000    Z=              0.0000  Tot=              0.0000
 Quadrupole moment (field-independent basis, Debye-Ang):
   XX=            -12.0963   YY=            -12.0346   ZZ=            -15.0402
   XY=              0.0000   XZ=              0.0000   YZ=              0.0000
 Traceless Quadrupole moment (field-independent basis, Debye-Ang):
   XX=              0.9607   YY=              1.0225   ZZ=             -1.9832
   XY=              0.0000   XZ=              0.0000   YZ=              0.0000
 Octapole moment (field-independent basis, Debye-Ang**2):
  XXX=              0.0000  YYY=              0.0000  ZZZ=              0.0000  XYY=              0.0000
  XXY=              0.0000  XXZ=              0.0000  XZZ=              0.0000  YZZ=              0.0000
  YYZ=              0.0000  XYZ=              0.0000
 Hexadecapole moment (field-independent basis, Debye-Ang**3):
 XXXX=            -66.8190 YYYY=            -26.1330 ZZZZ=            -15.6057 XXXY=              0.0000
 XXXZ=              0.0000 YYYX=              0.0000 YYYZ=              0.0000 ZZZX=              0.0000
 ZZZY=              0.0000 XXYY=            -13.2279 XXZZ=            -14.5403 YYZZ=             -7.5423
 XXYZ=              0.0000 YYXZ=              0.0000 ZZXY=              0.0000
 N-N= 3.331996505579D+01 E-N=-2.480275270101D+02  KE= 7.776942741619D+01
 Symmetry AG   KE= 3.737047283021D+01
 Symmetry B1G  KE= 2.101031165341D+00
 Symmetry B2G  KE= 3.093604922767D-32
 Symmetry B3G  KE= 3.276540094436D-32
 Symmetry AU   KE= 2.396554718506D-32
 Symmetry B1U  KE= 2.082451992886D+00
 Symmetry B2U  KE= 1.876701132671D+00
 Symmetry B3U  KE= 3.433877029508D+01
 No NMR shielding tensors so no spin-rotation constants.
 Leave Link  601 at Thu Mar 19 18:09:20 2026, MaxMem=   536870912 cpu:         0.0
 (Enter C:\G09W\l701.exe)
 Compute integral first derivatives.
 ... and contract with generalized density number  0.
 Leave Link  701 at Thu Mar 19 18:09:21 2026, MaxMem=   536870912 cpu:         0.0
 (Enter C:\G09W\l702.exe)
 L702 exits ... SP integral derivatives will be done elsewhere.
 Leave Link  702 at Thu Mar 19 18:09:21 2026, MaxMem=   536870912 cpu:         0.0
 (Enter C:\G09W\l703.exe)
 Compute integral first derivatives, UseDBF=F ICtDFT=           0.
 Integral derivatives from FoFJK, PRISM(SPDF).
 Calling FoFJK, ICntrl=      2127 FMM=F ISym2X=1 I1Cent= 0 IOpClX= 0 NMat=1 NMatS=1 NMatT=0.
 FoFJK:  IHMeth= 1 ICntrl=    2127 DoSepK=F KAlg= 0 I1Cent=   0 FoldK=F
 IRaf=         0 NMat=   1 IRICut=       1 DoRegI=T DoRafI=F ISym2E= 1.
 FoFCou: FMM=F IPFlag=           0 FMFlag=      100000 FMFlg1=         800
         NFxFlg=           0 DoJE=F BraDBF=F KetDBF=F FulRan=T
         wScrn=  0.000000 ICntrl=    2127 IOpCl=  0 I1Cent=           0 NGrid=           0
         NMat0=    1 NMatS0=      1 NMatT0=    0 NMatD0=    1 NMtDS0=    0 NMtDT0=    0
 Petite list used in FoFCou.
 Leave Link  703 at Thu Mar 19 18:09:21 2026, MaxMem=   536870912 cpu:         0.0
 (Enter C:\G09W\l716.exe)
 Dipole        =-4.44089210D-16-4.44089210D-16 9.13180578D-18
 ***** Axes restored to original set *****
 -------------------------------------------------------------------
 Center     Atomic                   Forces (Hartrees/Bohr)
 Number     Number              X              Y              Z
 -------------------------------------------------------------------
      1        6           0.008818721    0.000496162    0.000085716
      2        6          -0.008818721   -0.000496162   -0.000085716
      3        1          -0.002440371   -0.000355073    0.000085504
      4        1          -0.002462680    0.000079216   -0.000133160
      5        1           0.002440371    0.000355073   -0.000085504
      6        1           0.002462680   -0.000079216    0.000133160
 -------------------------------------------------------------------
 Cartesian Forces:  Max     0.008818721 RMS     0.003165806
 Leave Link  716 at Thu Mar 19 18:09:21 2026, MaxMem=   536870912 cpu:         0.0
 (Enter C:\G09W\l103.exe)

 GradGradGradGradGradGradGradGradGradGradGradGradGradGradGradGradGradGrad
 Berny optimization.
 FormGI is forming the generalized inverse of G from B-inverse, IUseBI=4.
 Internal  Forces:  Max     0.003922047 RMS     0.001784004
 Search for a local minimum.
 Step number   1 out of a maximum of   25
 All quantities printed in internal units (Hartrees-Bohrs-Radians)
 RMS Force = .17840D-02 SwitMx=.10000D-02 MixMth= 1
 Mixed Optimization -- RFO/linear search
 Second derivative matrix not updated -- first step.
 The second derivative matrix:
                          R1        R2        R3        R4        R5
           R1           0.58159
           R2           0.00000   0.35339
           R3           0.00000   0.00000   0.35339
           R4           0.00000   0.00000   0.00000   0.35339
           R5           0.00000   0.00000   0.00000   0.00000   0.35339
           A1           0.00000   0.00000   0.00000   0.00000   0.00000
           A2           0.00000   0.00000   0.00000   0.00000   0.00000
           A3           0.00000   0.00000   0.00000   0.00000   0.00000
           A4           0.00000   0.00000   0.00000   0.00000   0.00000
           A5           0.00000   0.00000   0.00000   0.00000   0.00000
           A6           0.00000   0.00000   0.00000   0.00000   0.00000
           D1           0.00000   0.00000   0.00000   0.00000   0.00000
           D2           0.00000   0.00000   0.00000   0.00000   0.00000
           D3           0.00000   0.00000   0.00000   0.00000   0.00000
           D4           0.00000   0.00000   0.00000   0.00000   0.00000
                          A1        A2        A3        A4        A5
           A1           0.16000
           A2           0.00000   0.16000
           A3           0.00000   0.00000   0.16000
           A4           0.00000   0.00000   0.00000   0.16000
           A5           0.00000   0.00000   0.00000   0.00000   0.16000
           A6           0.00000   0.00000   0.00000   0.00000   0.00000
           D1           0.00000   0.00000   0.00000   0.00000   0.00000
           D2           0.00000   0.00000   0.00000   0.00000   0.00000
           D3           0.00000   0.00000   0.00000   0.00000   0.00000
           D4           0.00000   0.00000   0.00000   0.00000   0.00000
                          A6        D1        D2        D3        D4
           A6           0.16000
           D1           0.00000   0.02938
           D2           0.00000   0.00000   0.02938
           D3           0.00000   0.00000   0.00000   0.02938
           D4           0.00000   0.00000   0.00000   0.00000   0.02938
 ITU=  0
     Eigenvalues ---    0.02938   0.02938   0.02938   0.16000   0.16000
     Eigenvalues ---    0.16000   0.16000   0.35339   0.35339   0.35339
     Eigenvalues ---    0.35339   0.58159
 RFO step:  Lambda=-2.13119336D-04 EMin= 2.93815804D-02
 Linear search not attempted -- first point.
 Iteration  1 RMS(Cart)=  0.00869853 RMS(Int)=  0.00004951
 Iteration  2 RMS(Cart)=  0.00005016 RMS(Int)=  0.00000001
 Iteration  3 RMS(Cart)=  0.00000001 RMS(Int)=  0.00000000
 ITry= 1 IFail=0 DXMaxC= 1.52D-02 DCOld= 1.00D+10 DXMaxT= 3.00D-01 DXLimC= 3.00D+00 Rises=F
 ClnCor:  largest displacement from symmetrization is 3.00D-09 for atom     5.
 Variable       Old X    -DE/DX   Delta X   Delta X   Delta X     New X
                                 (Linear)    (Quad)   (Total)
    R1        2.52427  -0.00392   0.00000  -0.00674  -0.00674   2.51753
    R2        2.05128   0.00106   0.00000   0.00299   0.00299   2.05427
    R3        2.05128   0.00106   0.00000   0.00299   0.00299   2.05427
    R4        2.05128   0.00106   0.00000   0.00299   0.00299   2.05427
    R5        2.05128   0.00106   0.00000   0.00299   0.00299   2.05427
    A1        2.11273   0.00152   0.00000   0.00951   0.00951   2.12224
    A2        2.11273   0.00152   0.00000   0.00951   0.00951   2.12224
    A3        2.05773  -0.00305   0.00000  -0.01903  -0.01903   2.03871
    A4        2.11273   0.00152   0.00000   0.00951   0.00951   2.12224
    A5        2.11273   0.00152   0.00000   0.00951   0.00951   2.12224
    A6        2.05773  -0.00305   0.00000  -0.01903  -0.01903   2.03871
    D1        3.14159   0.00000   0.00000   0.00000   0.00000   3.14159
    D2        0.00000   0.00000   0.00000   0.00000   0.00000   0.00000
    D3        0.00000   0.00000   0.00000   0.00000   0.00000   0.00000
    D4        3.14159   0.00000   0.00000   0.00000   0.00000   3.14159
         Item               Value     Threshold  Converged?
 Maximum Force            0.003922     0.000450     NO 
 RMS     Force            0.001784     0.000300     NO 
 Maximum Displacement     0.015192     0.001800     NO 
 RMS     Displacement     0.008709     0.001200     NO 
 Predicted change in Energy=-1.066842D-04
 Lowest energy point so far.  Saving SCF results.
 GradGradGradGradGradGradGradGradGradGradGradGradGradGradGradGradGradGrad

 Leave Link  103 at Thu Mar 19 18:09:22 2026, MaxMem=   536870912 cpu:         1.0
 (Enter C:\G09W\l202.exe)
                          Input orientation:                          
 ---------------------------------------------------------------------
 Center     Atomic      Atomic             Coordinates (Angstroms)
 Number     Number       Type             X           Y           Z
 ---------------------------------------------------------------------
      1          6           0       -0.665027   -0.037416   -0.006464
      2          6           0        0.665027    0.037416    0.006464
      3          1           0       -1.276077    0.756746   -0.427957
      4          1           0       -1.191200   -0.895561    0.403976
      5          1           0        1.276077   -0.756746    0.427957
      6          1           0        1.191200    0.895561   -0.403976
 ---------------------------------------------------------------------
                    Distance matrix (angstroms):
                    1          2          3          4          5
     1  C    0.000000
     2  C    1.332221   0.000000
     3  H    1.087075   2.115193   0.000000
     4  H    1.087075   2.115193   1.851874   0.000000
     5  H    2.115193   1.087075   3.088161   2.471296   0.000000
     6  H    2.115193   1.087075   2.471296   3.088161   1.851874
                    6
     6  H    0.000000
 Stoichiometry    C2H4
 Framework group  D2H[C2"(C.C),SG(H4)]
 Deg. of freedom     3
 Full point group                 D2H     NOp   8
 Omega: Change in point group or standard orientation.

 Old FWG=D02H [C2(C1.C1),SG"(H4)]
 New FWG=D02H [C2"(C1.C1),SG(H4)]
 RotChk:  IX=0 Diff= 2.00D+00
 Largest Abelian subgroup         D2H     NOp   8
 Largest concise Abelian subgroup D2      NOp   4
                         Standard orientation:                         
 ---------------------------------------------------------------------
 Center     Atomic      Atomic             Coordinates (Angstroms)
 Number     Number       Type             X           Y           Z
 ---------------------------------------------------------------------
      1          6           0        0.000000    0.000000    0.666110
      2          6           0        0.000000    0.000000   -0.666110
      3          1           0        0.000000    0.925937    1.235648
      4          1           0        0.000000   -0.925937    1.235648
      5          1           0        0.000000   -0.925937   -1.235648
      6          1           0        0.000000    0.925937   -1.235648
 ---------------------------------------------------------------------
 Rotational constants (GHZ):    146.2208391     30.0749880     24.9443793
 Leave Link  202 at Thu Mar 19 18:09:22 2026, MaxMem=   536870912 cpu:         0.0
 (Enter C:\G09W\l301.exe)
 Standard basis: 6-31G(d) (6D, 7F)
 Ernie: Thresh=  0.10000D-02 Tol=  0.10000D-05 Strict=F.
 There are    10 symmetry adapted cartesian basis functions of AG  symmetry.
 There are     1 symmetry adapted cartesian basis functions of B1G symmetry.
 There are     3 symmetry adapted cartesian basis functions of B2G symmetry.
 There are     5 symmetry adapted cartesian basis functions of B3G symmetry.
 There are     1 symmetry adapted cartesian basis functions of AU  symmetry.
 There are    10 symmetry adapted cartesian basis functions of B1U symmetry.
 There are     5 symmetry adapted cartesian basis functions of B2U symmetry.
 There are     3 symmetry adapted cartesian basis functions of B3U symmetry.
 There are    10 symmetry adapted basis functions of AG  symmetry.
 There are     1 symmetry adapted basis functions of B1G symmetry.
 There are     3 symmetry adapted basis functions of B2G symmetry.
 There are     5 symmetry adapted basis functions of B3G symmetry.
 There are     1 symmetry adapted basis functions of AU  symmetry.
 There are    10 symmetry adapted basis functions of B1U symmetry.
 There are     5 symmetry adapted basis functions of B2U symmetry.
 There are     3 symmetry adapted basis functions of B3U symmetry.
    38 basis functions,    72 primitive gaussians,    38 cartesian basis functions
     8 alpha electrons        8 beta electrons
       nuclear repulsion energy        33.3294523701 Hartrees.
 IExCor=  402 DFT=T Ex+Corr=B3LYP ExCW=0 ScaHFX=  0.200000
 ScaDFX=  0.800000  0.720000  1.000000  0.810000 ScalE2=  1.000000  1.000000
 IRadAn=      0 IRanWt=     -1 IRanGd=            0 ICorTp=0 IEmpDi=  4
 NAtoms=    6 NActive=    6 NUniq=    2 SFac= 4.00D+00 NAtFMM=   60 NAOKFM=F Big=F
 Integral buffers will be    131072 words long.
 Raffenetti 2 integral format.
 Two-electron integral symmetry is turned on.
 Leave Link  301 at Thu Mar 19 18:09:22 2026, MaxMem=   536870912 cpu:         0.0
 (Enter C:\G09W\l302.exe)
 NPDir=0 NMtPBC=     1 NCelOv=     1 NCel=       1 NClECP=     1 NCelD=      1
         NCelK=      1 NCelE2=     1 NClLst=     1 CellRange=     0.0.
 One-electron integrals computed using PRISM.
 One-electron integral symmetry used in STVInt
 NBasis=    38 RedAO= T EigKep=  1.08D-02  NBF=    10     1     3     5     1    10     5     3
 NBsUse=    38 1.00D-06 EigRej= -1.00D+00 NBFU=    10     1     3     5     1    10     5     3
 Precomputing XC quadrature grid using
 IXCGrd= 4 IRadAn=           0 IRanWt=          -1 IRanGd=           0 AccXCQ= 0.00D+00.
 Generated NRdTot=       0 NPtTot=           0 NUsed=           0 NTot=          32
 NSgBfM=    38    38    38    38    38 MxSgAt=     6 MxSgA2=     6.
 Leave Link  302 at Thu Mar 19 18:09:22 2026, MaxMem=   536870912 cpu:         0.0
 (Enter C:\G09W\l303.exe)
 DipDrv:  MaxL=1.
 Leave Link  303 at Thu Mar 19 18:09:22 2026, MaxMem=   536870912 cpu:         0.0
 (Enter C:\G09W\l401.exe)
 Initial guess from the checkpoint file:  "ethylene_rdkit.chk"
 B after Tr=     0.000000    0.000000    0.000000
         Rot=    0.707107    0.000000   -0.707107    0.000000 Ang= -90.00 deg.
 Guess basis will be translated and rotated to current coordinates.
 JPrj=2 DoOrth=T DoCkMO=T.
 Initial guess orbital symmetries:
       Occupied  (AG) (B1U) (AG) (B1U) (B2U) (AG) (B3G) (B3U)
       Virtual   (AG) (AG) (AG) (AG) (AG) (AG) (AG) (B1G) (B2G)
                 (B2G) (B2G) (B3G) (B3G) (B3G) (B3G) (AU) (B1U)
                 (B1U) (B1U) (B1U) (B1U) (B1U) (B1U) (B1U) (B2U)
                 (B2U) (B2U) (B2U) (B3U) (B3U)
 The electronic state of the initial guess is 1-AG.
 Leave Link  401 at Thu Mar 19 18:09:23 2026, MaxMem=   536870912 cpu:         0.0
 (Enter C:\G09W\l502.exe)
 Closed shell SCF:
 Using DIIS extrapolation, IDIIS=  1040.
 Integral symmetry usage will be decided dynamically.
 Keep R1 ints in memory in symmetry-blocked form, NReq=1162459.
 IVT=       23658 IEndB=       23658 NGot=   536870912 MDV=   536803898
 LenX=   536803898 LenY=   536802013
 Requested convergence on RMS density matrix=1.00D-08 within 128 cycles.
 Requested convergence on MAX density matrix=1.00D-06.
 Requested convergence on             energy=1.00D-06.
 No special actions if energy rises.
 FoFCou: FMM=F IPFlag=           0 FMFlag=           0 FMFlg1=           0
         NFxFlg=           0 DoJE=F BraDBF=F KetDBF=F FulRan=T
         wScrn=  0.000000 ICntrl=     600 IOpCl=  0 I1Cent=           0 NGrid=           0
         NMat0=    1 NMatS0=    741 NMatT0=    0 NMatD0=    1 NMtDS0=    0 NMtDT0=    0
 Petite list used in FoFCou.

 Cycle   1  Pass 1  IDiag  1:
 E= -78.5874228731252    
 DIIS: error= 6.90D-04 at cycle   1 NSaved=   1.
 NSaved= 1 IEnMin= 1 EnMin= -78.5874228731252     IErMin= 1 ErrMin= 6.90D-04
 ErrMax= 6.90D-04  0.00D+00 EMaxC= 1.00D-01 BMatC= 1.23D-05 BMatP= 1.23D-05
 IDIUse=3 WtCom= 9.93D-01 WtEn= 6.90D-03
 Coeff-Com:  0.100D+01
 Coeff-En:   0.100D+01
 Coeff:      0.100D+01
 Gap=     0.512 Goal=   None    Shift=    0.000
 RMSDP=1.32D-04 MaxDP=7.31D-04              OVMax= 1.53D-03

 Cycle   2  Pass 1  IDiag  1:
 E= -78.5874421917388     Delta-E=       -0.000019318614 Rises=F Damp=F
 DIIS: error= 4.90D-05 at cycle   2 NSaved=   2.
 NSaved= 2 IEnMin= 2 EnMin= -78.5874421917388     IErMin= 2 ErrMin= 4.90D-05
 ErrMax= 4.90D-05  0.00D+00 EMaxC= 1.00D-01 BMatC= 5.55D-08 BMatP= 1.23D-05
 IDIUse=1 WtCom= 1.00D+00 WtEn= 0.00D+00
 Coeff-Com: -0.302D-01 0.103D+01
 Coeff:     -0.302D-01 0.103D+01
 Gap=     0.285 Goal=   None    Shift=    0.000
 RMSDP=1.51D-05 MaxDP=8.12D-05 DE=-1.93D-05 OVMax= 1.30D-04

 Cycle   3  Pass 1  IDiag  1:
 E= -78.5874422913620     Delta-E=       -0.000000099623 Rises=F Damp=F
 DIIS: error= 9.13D-06 at cycle   3 NSaved=   3.
 NSaved= 3 IEnMin= 3 EnMin= -78.5874422913620     IErMin= 3 ErrMin= 9.13D-06
 ErrMax= 9.13D-06  0.00D+00 EMaxC= 1.00D-01 BMatC= 1.69D-09 BMatP= 5.55D-08
 IDIUse=1 WtCom= 1.00D+00 WtEn= 0.00D+00
 Coeff-Com: -0.742D-02 0.933D-01 0.914D+00
 Coeff:     -0.742D-02 0.933D-01 0.914D+00
 Gap=     0.285 Goal=   None    Shift=    0.000
 RMSDP=1.37D-06 MaxDP=1.14D-05 DE=-9.96D-08 OVMax= 1.45D-05

 Cycle   4  Pass 1  IDiag  1:
 E= -78.5874422929683     Delta-E=       -0.000000001606 Rises=F Damp=F
 DIIS: error= 2.26D-06 at cycle   4 NSaved=   4.
 NSaved= 4 IEnMin= 4 EnMin= -78.5874422929683     IErMin= 4 ErrMin= 2.26D-06
 ErrMax= 2.26D-06  0.00D+00 EMaxC= 1.00D-01 BMatC= 8.52D-11 BMatP= 1.69D-09
 IDIUse=1 WtCom= 1.00D+00 WtEn= 0.00D+00
 Coeff-Com: -0.759D-03 0.188D-02 0.186D+00 0.813D+00
 Coeff:     -0.759D-03 0.188D-02 0.186D+00 0.813D+00
 Gap=     0.285 Goal=   None    Shift=    0.000
 RMSDP=2.37D-07 MaxDP=1.92D-06 DE=-1.61D-09 OVMax= 3.06D-06

 Cycle   5  Pass 1  IDiag  1:
 E= -78.5874422930349     Delta-E=       -0.000000000067 Rises=F Damp=F
 DIIS: error= 5.12D-07 at cycle   5 NSaved=   5.
 NSaved= 5 IEnMin= 5 EnMin= -78.5874422930349     IErMin= 5 ErrMin= 5.12D-07
 ErrMax= 5.12D-07  0.00D+00 EMaxC= 1.00D-01 BMatC= 7.19D-12 BMatP= 8.52D-11
 IDIUse=1 WtCom= 1.00D+00 WtEn= 0.00D+00
 Coeff-Com: -0.136D-03-0.174D-02 0.588D-01 0.318D+00 0.625D+00
 Coeff:     -0.136D-03-0.174D-02 0.588D-01 0.318D+00 0.625D+00
 Gap=     0.285 Goal=   None    Shift=    0.000
 RMSDP=8.16D-08 MaxDP=8.12D-07 DE=-6.66D-11 OVMax= 9.90D-07

 Cycle   6  Pass 1  IDiag  1:
 E= -78.5874422930422     Delta-E=       -0.000000000007 Rises=F Damp=F
 DIIS: error= 1.33D-07 at cycle   6 NSaved=   6.
 NSaved= 6 IEnMin= 6 EnMin= -78.5874422930422     IErMin= 6 ErrMin= 1.33D-07
 ErrMax= 1.33D-07  0.00D+00 EMaxC= 1.00D-01 BMatC= 3.83D-13 BMatP= 7.19D-12
 IDIUse=1 WtCom= 1.00D+00 WtEn= 0.00D+00
 Coeff-Com:  0.328D-04-0.462D-03-0.352D-02-0.108D-01 0.181D+00 0.834D+00
 Coeff:      0.328D-04-0.462D-03-0.352D-02-0.108D-01 0.181D+00 0.834D+00
 Gap=     0.285 Goal=   None    Shift=    0.000
 RMSDP=1.65D-08 MaxDP=1.21D-07 DE=-7.28D-12 OVMax= 2.09D-07

 Cycle   7  Pass 1  IDiag  1:
 E= -78.5874422930420     Delta-E=        0.000000000000 Rises=F Damp=F
 DIIS: error= 2.78D-09 at cycle   7 NSaved=   7.
 NSaved= 7 IEnMin= 6 EnMin= -78.5874422930422     IErMin= 7 ErrMin= 2.78D-09
 ErrMax= 2.78D-09  0.00D+00 EMaxC= 1.00D-01 BMatC= 1.38D-16 BMatP= 3.83D-13
 IDIUse=1 WtCom= 1.00D+00 WtEn= 0.00D+00
 Coeff-Com:  0.182D-05-0.153D-04-0.288D-03-0.202D-02 0.236D-02 0.318D-01
 Coeff-Com:  0.968D+00
 Coeff:      0.182D-05-0.153D-04-0.288D-03-0.202D-02 0.236D-02 0.318D-01
 Coeff:      0.968D+00
 Gap=     0.285 Goal=   None    Shift=    0.000
 RMSDP=4.62D-10 MaxDP=3.81D-09 DE= 1.99D-13 OVMax= 4.94D-09

 SCF Done:  E(RB3LYP) =  -78.5874422930     A.U. after    7 cycles
            NFock=  7  Conv=0.46D-09     -V/T= 2.0105
 KE= 7.776941828250D+01 PE=-2.480449500770D+02 EE= 5.835863713131D+01
 Leave Link  502 at Thu Mar 19 18:09:23 2026, MaxMem=   536870912 cpu:         0.0
 (Enter C:\G09W\l701.exe)
 Compute integral first derivatives.
 ... and contract with generalized density number  0.
 Leave Link  701 at Thu Mar 19 18:09:24 2026, MaxMem=   536870912 cpu:         1.0
 (Enter C:\G09W\l702.exe)
 L702 exits ... SP integral derivatives will be done elsewhere.
 Leave Link  702 at Thu Mar 19 18:09:24 2026, MaxMem=   536870912 cpu:         0.0
 (Enter C:\G09W\l703.exe)
 Compute integral first derivatives, UseDBF=F ICtDFT=           0.
 Integral derivatives from FoFJK, PRISM(SPDF).
 Calling FoFJK, ICntrl=      2127 FMM=F ISym2X=1 I1Cent= 0 IOpClX= 0 NMat=1 NMatS=1 NMatT=0.
 FoFJK:  IHMeth= 1 ICntrl=    2127 DoSepK=F KAlg= 0 I1Cent=   0 FoldK=F
 IRaf=         0 NMat=   1 IRICut=       1 DoRegI=T DoRafI=F ISym2E= 1.
 FoFCou: FMM=F IPFlag=           0 FMFlag=      100000 FMFlg1=         800
         NFxFlg=           0 DoJE=F BraDBF=F KetDBF=F FulRan=T
         wScrn=  0.000000 ICntrl=    2127 IOpCl=  0 I1Cent=           0 NGrid=           0
         NMat0=    1 NMatS0=      1 NMatT0=    0 NMatD0=    1 NMtDS0=    0 NMtDT0=    0
 Petite list used in FoFCou.
 Leave Link  703 at Thu Mar 19 18:09:24 2026, MaxMem=   536870912 cpu:         0.0
 (Enter C:\G09W\l716.exe)
 Dipole        =-5.75162401D-17 2.22044605D-16 0.00000000D+00
 ***** Axes restored to original set *****
 -------------------------------------------------------------------
 Center     Atomic                   Forces (Hartrees/Bohr)
 Number     Number              X              Y              Z
 -------------------------------------------------------------------
      1        6           0.002401657    0.000135123    0.000023344
      2        6          -0.002401657   -0.000135123   -0.000023344
      3        1          -0.000723606   -0.000257536    0.000101715
      4        1          -0.000745818    0.000174863   -0.000115997
      5        1           0.000723606    0.000257536   -0.000101715
      6        1           0.000745818   -0.000174863    0.000115997
 -------------------------------------------------------------------
 Cartesian Forces:  Max     0.002401657 RMS     0.000881117
 Leave Link  716 at Thu Mar 19 18:09:25 2026, MaxMem=   536870912 cpu:         1.0
 (Enter C:\G09W\l103.exe)

 GradGradGradGradGradGradGradGradGradGradGradGradGradGradGradGradGradGrad
 Berny optimization.
 Using GEDIIS/GDIIS optimizer.
 FormGI is forming the generalized inverse of G from B-inverse, IUseBI=4.
 Internal  Forces:  Max     0.001032308 RMS     0.000528978
 Search for a local minimum.
 Step number   2 out of a maximum of   25
 All quantities printed in internal units (Hartrees-Bohrs-Radians)
 RMS Force = .52898D-03 SwitMx=.10000D-02 MixMth= 2
 Mixed Optimization -- En-DIIS/RFO-DIIS
 Update second derivatives using D2CorX and points    1    2
 DE= -1.40D-04 DEPred=-1.07D-04 R= 1.32D+00
 TightC=F SS=  1.41D+00  RLast= 3.42D-02 DXNew= 5.0454D-01 1.0250D-01
 Trust test= 1.32D+00 RLast= 3.42D-02 DXMaxT set to 3.00D-01
 The second derivative matrix:
                          R1        R2        R3        R4        R5
           R1           0.57065
           R2           0.00146   0.35344
           R3           0.00146   0.00005   0.35344
           R4           0.00146   0.00005   0.00005   0.35344
           R5           0.00146   0.00005   0.00005   0.00005   0.35344
           A1           0.00737  -0.00148  -0.00148  -0.00148  -0.00148
           A2           0.00737  -0.00148  -0.00148  -0.00148  -0.00148
           A3          -0.01474   0.00297   0.00297   0.00297   0.00297
           A4           0.00737  -0.00148  -0.00148  -0.00148  -0.00148
           A5           0.00737  -0.00148  -0.00148  -0.00148  -0.00148
           A6          -0.01474   0.00297   0.00297   0.00297   0.00297
           D1           0.00000   0.00000   0.00000   0.00000   0.00000
           D2           0.00000   0.00000   0.00000   0.00000   0.00000
           D3           0.00000   0.00000   0.00000   0.00000   0.00000
           D4           0.00000   0.00000   0.00000   0.00000   0.00000
                          A1        A2        A3        A4        A5
           A1           0.15609
           A2          -0.00391   0.15609
           A3           0.00783   0.00783   0.14435
           A4          -0.00391  -0.00391   0.00783   0.15609
           A5          -0.00391  -0.00391   0.00783  -0.00391   0.15609
           A6           0.00783   0.00783  -0.01565   0.00783   0.00783
           D1           0.00000   0.00000   0.00000   0.00000   0.00000
           D2           0.00000   0.00000   0.00000   0.00000   0.00000
           D3           0.00000   0.00000   0.00000   0.00000   0.00000
           D4           0.00000   0.00000   0.00000   0.00000   0.00000
                          A6        D1        D2        D3        D4
           A6           0.14435
           D1           0.00000   0.02938
           D2           0.00000   0.00000   0.02938
           D3           0.00000   0.00000   0.00000   0.02938
           D4           0.00000   0.00000   0.00000   0.00000   0.02938
 ITU=  1  0
 Use linear search instead of GDIIS.
     Eigenvalues ---    0.02938   0.02938   0.02938   0.11118   0.16000
     Eigenvalues ---    0.16000   0.16000   0.35339   0.35339   0.35339
     Eigenvalues ---    0.35400   0.57210
 RFO step:  Lambda=-1.09642466D-06 EMin= 2.93815804D-02
 Quartic linear search produced a step of  0.45936.
 Iteration  1 RMS(Cart)=  0.00451740 RMS(Int)=  0.00001197
 Iteration  2 RMS(Cart)=  0.00001201 RMS(Int)=  0.00000000
 Iteration  3 RMS(Cart)=  0.00000000 RMS(Int)=  0.00000001
 ITry= 1 IFail=0 DXMaxC= 7.67D-03 DCOld= 1.00D+10 DXMaxT= 3.00D-01 DXLimC= 3.00D+00 Rises=F
 ClnCor:  largest displacement from symmetrization is 5.40D-09 for atom     6.
 Variable       Old X    -DE/DX   Delta X   Delta X   Delta X     New X
                                 (Linear)    (Quad)   (Total)
    R1        2.51753  -0.00093  -0.00310   0.00072  -0.00237   2.51516
    R2        2.05427   0.00018   0.00137  -0.00062   0.00075   2.05503
    R3        2.05427   0.00018   0.00137  -0.00062   0.00075   2.05503
    R4        2.05427   0.00018   0.00137  -0.00062   0.00075   2.05503
    R5        2.05427   0.00018   0.00137  -0.00062   0.00075   2.05503
    A1        2.12224   0.00052   0.00437   0.00036   0.00473   2.12697
    A2        2.12224   0.00052   0.00437   0.00036   0.00473   2.12697
    A3        2.03871  -0.00103  -0.00874  -0.00072  -0.00946   2.02925
    A4        2.12224   0.00052   0.00437   0.00036   0.00473   2.12697
    A5        2.12224   0.00052   0.00437   0.00036   0.00473   2.12697
    A6        2.03871  -0.00103  -0.00874  -0.00072  -0.00946   2.02925
    D1        3.14159   0.00000   0.00000   0.00000   0.00000   3.14159
    D2        0.00000   0.00000   0.00000   0.00000   0.00000   0.00000
    D3        0.00000   0.00000   0.00000   0.00000   0.00000   0.00000
    D4        3.14159   0.00000   0.00000   0.00000   0.00000   3.14159
         Item               Value     Threshold  Converged?
 Maximum Force            0.001032     0.000450     NO 
 RMS     Force            0.000529     0.000300     NO 
 Maximum Displacement     0.007668     0.001800     NO 
 RMS     Displacement     0.004519     0.001200     NO 
 Predicted change in Energy=-1.612591D-05
 Lowest energy point so far.  Saving SCF results.
 GradGradGradGradGradGradGradGradGradGradGradGradGradGradGradGradGradGrad

 Leave Link  103 at Thu Mar 19 18:09:25 2026, MaxMem=   536870912 cpu:         0.0
 (Enter C:\G09W\l202.exe)
                          Input orientation:                          
 ---------------------------------------------------------------------
 Center     Atomic      Atomic             Coordinates (Angstroms)
 Number     Number       Type             X           Y           Z
 ---------------------------------------------------------------------
      1          6           0       -0.664401   -0.037381   -0.006458
      2          6           0        0.664401    0.037381    0.006458
      3          1           0       -1.279918    0.754413   -0.426932
      4          1           0       -1.195258   -0.893672    0.402874
      5          1           0        1.279918   -0.754413    0.426932
      6          1           0        1.195258    0.893672   -0.402874
 ---------------------------------------------------------------------
                    Distance matrix (angstroms):
                    1          2          3          4          5
     1  C    0.000000
     2  C    1.330965   0.000000
     3  H    1.087473   2.117153   0.000000
     4  H    1.087473   2.117153   1.847141   0.000000
     5  H    2.117153   1.087473   3.091665   2.479207   0.000000
     6  H    2.117153   1.087473   2.479207   3.091665   1.847141
                    6
     6  H    0.000000
 Stoichiometry    C2H4
 Framework group  D2H[C2"(C.C),SG(H4)]
 Deg. of freedom     3
 Full point group                 D2H     NOp   8
 RotChk:  IX=0 Diff= 5.06D-16
 Largest Abelian subgroup         D2H     NOp   8
 Largest concise Abelian subgroup D2      NOp   4
                         Standard orientation:                         
 ---------------------------------------------------------------------
 Center     Atomic      Atomic             Coordinates (Angstroms)
 Number     Number       Type             X           Y           Z
 ---------------------------------------------------------------------
      1          6           0        0.000000    0.000000    0.665483
      2          6           0        0.000000    0.000000   -0.665483
      3          1           0        0.000000    0.923570    1.239603
      4          1           0        0.000000   -0.923570    1.239603
      5          1           0        0.000000   -0.923570   -1.239603
      6          1           0        0.000000    0.923570   -1.239603
 ---------------------------------------------------------------------
 Rotational constants (GHZ):    146.9711710     30.0402909     24.9422082
 Leave Link  202 at Thu Mar 19 18:09:25 2026, MaxMem=   536870912 cpu:         0.0
 (Enter C:\G09W\l301.exe)
 Standard basis: 6-31G(d) (6D, 7F)
 Ernie: Thresh=  0.10000D-02 Tol=  0.10000D-05 Strict=F.
 There are    10 symmetry adapted cartesian basis functions of AG  symmetry.
 There are     1 symmetry adapted cartesian basis functions of B1G symmetry.
 There are     3 symmetry adapted cartesian basis functions of B2G symmetry.
 There are     5 symmetry adapted cartesian basis functions of B3G symmetry.
 There are     1 symmetry adapted cartesian basis functions of AU  symmetry.
 There are    10 symmetry adapted cartesian basis functions of B1U symmetry.
 There are     5 symmetry adapted cartesian basis functions of B2U symmetry.
 There are     3 symmetry adapted cartesian basis functions of B3U symmetry.
 There are    10 symmetry adapted basis functions of AG  symmetry.
 There are     1 symmetry adapted basis functions of B1G symmetry.
 There are     3 symmetry adapted basis functions of B2G symmetry.
 There are     5 symmetry adapted basis functions of B3G symmetry.
 There are     1 symmetry adapted basis functions of AU  symmetry.
 There are    10 symmetry adapted basis functions of B1U symmetry.
 There are     5 symmetry adapted basis functions of B2U symmetry.
 There are     3 symmetry adapted basis functions of B3U symmetry.
    38 basis functions,    72 primitive gaussians,    38 cartesian basis functions
     8 alpha electrons        8 beta electrons
       nuclear repulsion energy        33.3328226640 Hartrees.
 IExCor=  402 DFT=T Ex+Corr=B3LYP ExCW=0 ScaHFX=  0.200000
 ScaDFX=  0.800000  0.720000  1.000000  0.810000 ScalE2=  1.000000  1.000000
 IRadAn=      0 IRanWt=     -1 IRanGd=            0 ICorTp=0 IEmpDi=  4
 NAtoms=    6 NActive=    6 NUniq=    2 SFac= 4.00D+00 NAtFMM=   60 NAOKFM=F Big=F
 Integral buffers will be    131072 words long.
 Raffenetti 2 integral format.
 Two-electron integral symmetry is turned on.
 Leave Link  301 at Thu Mar 19 18:09:25 2026, MaxMem=   536870912 cpu:         0.0
 (Enter C:\G09W\l302.exe)
 NPDir=0 NMtPBC=     1 NCelOv=     1 NCel=       1 NClECP=     1 NCelD=      1
         NCelK=      1 NCelE2=     1 NClLst=     1 CellRange=     0.0.
 One-electron integrals computed using PRISM.
 One-electron integral symmetry used in STVInt
 NBasis=    38 RedAO= T EigKep=  1.08D-02  NBF=    10     1     3     5     1    10     5     3
 NBsUse=    38 1.00D-06 EigRej= -1.00D+00 NBFU=    10     1     3     5     1    10     5     3
 Precomputing XC quadrature grid using
 IXCGrd= 4 IRadAn=           0 IRanWt=          -1 IRanGd=           0 AccXCQ= 0.00D+00.
 Generated NRdTot=       0 NPtTot=           0 NUsed=           0 NTot=          32
 NSgBfM=    38    38    38    38    38 MxSgAt=     6 MxSgA2=     6.
 Leave Link  302 at Thu Mar 19 18:09:25 2026, MaxMem=   536870912 cpu:         0.0
 (Enter C:\G09W\l303.exe)
 DipDrv:  MaxL=1.
 Leave Link  303 at Thu Mar 19 18:09:25 2026, MaxMem=   536870912 cpu:         0.0
 (Enter C:\G09W\l401.exe)
 Initial guess from the checkpoint file:  "ethylene_rdkit.chk"
 B after Tr=     0.000000    0.000000    0.000000
         Rot=    1.000000    0.000000    0.000000    0.000000 Ang=   0.00 deg.
 Guess basis will be translated and rotated to current coordinates.
 JPrj=2 DoOrth=T DoCkMO=T.
 Initial guess orbital symmetries:
       Occupied  (AG) (B1U) (AG) (B1U) (B2U) (AG) (B3G) (B3U)
       Virtual   (AG) (AG) (AG) (AG) (AG) (AG) (AG) (B1G) (B2G)
                 (B2G) (B2G) (B3G) (B3G) (B3G) (B3G) (AU) (B1U)
                 (B1U) (B1U) (B1U) (B1U) (B1U) (B1U) (B1U) (B2U)
                 (B2U) (B2U) (B2U) (B3U) (B3U)
 The electronic state of the initial guess is 1-AG.
 Leave Link  401 at Thu Mar 19 18:09:26 2026, MaxMem=   536870912 cpu:         0.0
 (Enter C:\G09W\l502.exe)
 Closed shell SCF:
 Using DIIS extrapolation, IDIIS=  1040.
 Integral symmetry usage will be decided dynamically.
 Keep R1 ints in memory in symmetry-blocked form, NReq=1162459.
 IVT=       23658 IEndB=       23658 NGot=   536870912 MDV=   536803898
 LenX=   536803898 LenY=   536802013
 Requested convergence on RMS density matrix=1.00D-08 within 128 cycles.
 Requested convergence on MAX density matrix=1.00D-06.
 Requested convergence on             energy=1.00D-06.
 No special actions if energy rises.
 FoFCou: FMM=F IPFlag=           0 FMFlag=           0 FMFlg1=           0
         NFxFlg=           0 DoJE=F BraDBF=F KetDBF=F FulRan=T
         wScrn=  0.000000 ICntrl=     600 IOpCl=  0 I1Cent=           0 NGrid=           0
         NMat0=    1 NMatS0=    741 NMatT0=    0 NMatD0=    1 NMtDS0=    0 NMtDT0=    0
 Petite list used in FoFCou.

 Cycle   1  Pass 1  IDiag  1:
 E= -78.5874543633622    
 DIIS: error= 3.27D-04 at cycle   1 NSaved=   1.
 NSaved= 1 IEnMin= 1 EnMin= -78.5874543633622     IErMin= 1 ErrMin= 3.27D-04
 ErrMax= 3.27D-04  0.00D+00 EMaxC= 1.00D-01 BMatC= 2.68D-06 BMatP= 2.68D-06
 IDIUse=3 WtCom= 9.97D-01 WtEn= 3.27D-03
 Coeff-Com:  0.100D+01
 Coeff-En:   0.100D+01
 Coeff:      0.100D+01
 Gap=     0.513 Goal=   None    Shift=    0.000
 RMSDP=5.96D-05 MaxDP=3.86D-04              OVMax= 7.04D-04

 Cycle   2  Pass 1  IDiag  1:
 E= -78.5874582694213     Delta-E=       -0.000003906059 Rises=F Damp=F
 DIIS: error= 2.83D-05 at cycle   2 NSaved=   2.
 NSaved= 2 IEnMin= 2 EnMin= -78.5874582694213     IErMin= 2 ErrMin= 2.83D-05
 ErrMax= 2.83D-05  0.00D+00 EMaxC= 1.00D-01 BMatC= 2.08D-08 BMatP= 2.68D-06
 IDIUse=1 WtCom= 1.00D+00 WtEn= 0.00D+00
 Coeff-Com: -0.913D-02 0.101D+01
 Coeff:     -0.913D-02 0.101D+01
 Gap=     0.285 Goal=   None    Shift=    0.000
 RMSDP=7.66D-06 MaxDP=4.40D-05 DE=-3.91D-06 OVMax= 7.46D-05

 Cycle   3  Pass 1  IDiag  1:
 E= -78.5874582973466     Delta-E=       -0.000000027925 Rises=F Damp=F
 DIIS: error= 7.20D-06 at cycle   3 NSaved=   3.
 NSaved= 3 IEnMin= 3 EnMin= -78.5874582973466     IErMin= 3 ErrMin= 7.20D-06
 ErrMax= 7.20D-06  0.00D+00 EMaxC= 1.00D-01 BMatC= 1.98D-09 BMatP= 2.08D-08
 IDIUse=1 WtCom= 1.00D+00 WtEn= 0.00D+00
 Coeff-Com: -0.119D-01 0.207D+00 0.805D+00
 Coeff:     -0.119D-01 0.207D+00 0.805D+00
 Gap=     0.285 Goal=   None    Shift=    0.000
 RMSDP=1.15D-06 MaxDP=8.03D-06 DE=-2.79D-08 OVMax= 1.49D-05

 Cycle   4  Pass 1  IDiag  1:
 E= -78.5874582991193     Delta-E=       -0.000000001773 Rises=F Damp=F
 DIIS: error= 2.23D-06 at cycle   4 NSaved=   4.
 NSaved= 4 IEnMin= 4 EnMin= -78.5874582991193     IErMin= 4 ErrMin= 2.23D-06
 ErrMax= 2.23D-06  0.00D+00 EMaxC= 1.00D-01 BMatC= 1.19D-10 BMatP= 1.98D-09
 IDIUse=1 WtCom= 1.00D+00 WtEn= 0.00D+00
 Coeff-Com: -0.349D-02 0.472D-01 0.252D+00 0.704D+00
 Coeff:     -0.349D-02 0.472D-01 0.252D+00 0.704D+00
 Gap=     0.285 Goal=   None    Shift=    0.000
 RMSDP=3.99D-07 MaxDP=3.73D-06 DE=-1.77D-09 OVMax= 4.78D-06

 Cycle   5  Pass 1  IDiag  1:
 E= -78.5874582992319     Delta-E=       -0.000000000113 Rises=F Damp=F
 DIIS: error= 7.52D-07 at cycle   5 NSaved=   5.
 NSaved= 5 IEnMin= 5 EnMin= -78.5874582992319     IErMin= 5 ErrMin= 7.52D-07
 ErrMax= 7.52D-07  0.00D+00 EMaxC= 1.00D-01 BMatC= 1.97D-11 BMatP= 1.19D-10
 IDIUse=1 WtCom= 1.00D+00 WtEn= 0.00D+00
 Coeff-Com: -0.145D-03-0.213D-02 0.201D-01 0.304D+00 0.678D+00
 Coeff:     -0.145D-03-0.213D-02 0.201D-01 0.304D+00 0.678D+00
 Gap=     0.285 Goal=   None    Shift=    0.000
 RMSDP=1.01D-07 MaxDP=7.83D-07 DE=-1.13D-10 OVMax= 1.26D-06

 Cycle   6  Pass 1  IDiag  1:
 E= -78.5874582992526     Delta-E=       -0.000000000021 Rises=F Damp=F
 DIIS: error= 1.86D-08 at cycle   6 NSaved=   6.
 NSaved= 6 IEnMin= 6 EnMin= -78.5874582992526     IErMin= 6 ErrMin= 1.86D-08
 ErrMax= 1.86D-08  0.00D+00 EMaxC= 1.00D-01 BMatC= 4.81D-15 BMatP= 1.97D-11
 IDIUse=1 WtCom= 1.00D+00 WtEn= 0.00D+00
 Coeff-Com:  0.324D-04-0.467D-03-0.174D-02-0.489D-02-0.183D-01 0.103D+01
 Coeff:      0.324D-04-0.467D-03-0.174D-02-0.489D-02-0.183D-01 0.103D+01
 Gap=     0.285 Goal=   None    Shift=    0.000
 RMSDP=2.95D-09 MaxDP=2.38D-08 DE=-2.07D-11 OVMax= 4.16D-08

 SCF Done:  E(RB3LYP) =  -78.5874582993     A.U. after    6 cycles
            NFock=  6  Conv=0.30D-08     -V/T= 2.0105
 KE= 7.777003005303D+01 PE=-2.480510751729D+02 EE= 5.836076415666D+01
 Leave Link  502 at Thu Mar 19 18:09:27 2026, MaxMem=   536870912 cpu:         1.0
 (Enter C:\G09W\l701.exe)
 Compute integral first derivatives.
 ... and contract with generalized density number  0.
 Leave Link  701 at Thu Mar 19 18:09:27 2026, MaxMem=   536870912 cpu:         0.0
 (Enter C:\G09W\l702.exe)
 L702 exits ... SP integral derivatives will be done elsewhere.
 Leave Link  702 at Thu Mar 19 18:09:27 2026, MaxMem=   536870912 cpu:         0.0
 (Enter C:\G09W\l703.exe)
 Compute integral first derivatives, UseDBF=F ICtDFT=           0.
 Integral derivatives from FoFJK, PRISM(SPDF).
 Calling FoFJK, ICntrl=      2127 FMM=F ISym2X=1 I1Cent= 0 IOpClX= 0 NMat=1 NMatS=1 NMatT=0.
 FoFJK:  IHMeth= 1 ICntrl=    2127 DoSepK=F KAlg= 0 I1Cent=   0 FoldK=F
 IRaf=         0 NMat=   1 IRICut=       1 DoRegI=T DoRafI=F ISym2E= 1.
 FoFCou: FMM=F IPFlag=           0 FMFlag=      100000 FMFlg1=         800
         NFxFlg=           0 DoJE=F BraDBF=F KetDBF=F FulRan=T
         wScrn=  0.000000 ICntrl=    2127 IOpCl=  0 I1Cent=           0 NGrid=           0
         NMat0=    1 NMatS0=      1 NMatT0=    0 NMatD0=    1 NMtDS0=    0 NMtDT0=    0
 Petite list used in FoFCou.
 Leave Link  703 at Thu Mar 19 18:09:27 2026, MaxMem=   536870912 cpu:         0.0
 (Enter C:\G09W\l716.exe)
 Dipole        =-3.09406560D-17 4.44089210D-16 1.33226763D-15
 ***** Axes restored to original set *****
 -------------------------------------------------------------------
 Center     Atomic                   Forces (Hartrees/Bohr)
 Number     Number              X              Y              Z
 -------------------------------------------------------------------
      1        6           0.000032711    0.000001840    0.000000318
      2        6          -0.000032711   -0.000001840   -0.000000318
      3        1          -0.000001911    0.000008959   -0.000004566
      4        1          -0.000000983   -0.000009122    0.000004538
      5        1           0.000001911   -0.000008959    0.000004566
      6        1           0.000000983    0.000009122   -0.000004538
 -------------------------------------------------------------------
 Cartesian Forces:  Max     0.000032711 RMS     0.000011940
 Leave Link  716 at Thu Mar 19 18:09:27 2026, MaxMem=   536870912 cpu:         0.0
 (Enter C:\G09W\l103.exe)

 GradGradGradGradGradGradGradGradGradGradGradGradGradGradGradGradGradGrad
 Berny optimization.
 Using GEDIIS/GDIIS optimizer.
 FormGI is forming the generalized inverse of G from B-inverse, IUseBI=4.
 Internal  Forces:  Max     0.000029866 RMS     0.000009447
 Search for a local minimum.
 Step number   3 out of a maximum of   25
 All quantities printed in internal units (Hartrees-Bohrs-Radians)
 RMS Force = .94471D-05 SwitMx=.10000D-02 MixMth= 2
 Mixed Optimization -- En-DIIS/RFO-DIIS
 Swapping is turned off.
 Update second derivatives using D2CorX and points    1    2    3
 DE= -1.60D-05 DEPred=-1.61D-05 R= 9.93D-01
 TightC=F SS=  1.41D+00  RLast= 1.66D-02 DXNew= 5.0454D-01 4.9874D-02
 Trust test= 9.93D-01 RLast= 1.66D-02 DXMaxT set to 3.00D-01
 The second derivative matrix:
                          R1        R2        R3        R4        R5
           R1           0.56862
           R2           0.00198   0.35330
           R3           0.00198  -0.00008   0.35330
           R4           0.00198  -0.00008  -0.00008   0.35330
           R5           0.00198  -0.00008  -0.00008  -0.00008   0.35330
           A1           0.00774  -0.00160  -0.00160  -0.00160  -0.00160
           A2           0.00774  -0.00160  -0.00160  -0.00160  -0.00160
           A3          -0.01548   0.00320   0.00320   0.00320   0.00320
           A4           0.00774  -0.00160  -0.00160  -0.00160  -0.00160
           A5           0.00774  -0.00160  -0.00160  -0.00160  -0.00160
           A6          -0.01548   0.00320   0.00320   0.00320   0.00320
           D1           0.00000   0.00000   0.00000   0.00000   0.00000
           D2           0.00000   0.00000   0.00000   0.00000   0.00000
           D3           0.00000   0.00000   0.00000   0.00000   0.00000
           D4           0.00000   0.00000   0.00000   0.00000   0.00000
                          A1        A2        A3        A4        A5
           A1           0.15622
           A2          -0.00378   0.15622
           A3           0.00756   0.00756   0.14487
           A4          -0.00378  -0.00378   0.00756   0.15622
           A5          -0.00378  -0.00378   0.00756  -0.00378   0.15622
           A6           0.00756   0.00756  -0.01513   0.00756   0.00756
           D1           0.00000   0.00000   0.00000   0.00000   0.00000
           D2           0.00000   0.00000   0.00000   0.00000   0.00000
           D3           0.00000   0.00000   0.00000   0.00000   0.00000
           D4           0.00000   0.00000   0.00000   0.00000   0.00000
                          A6        D1        D2        D3        D4
           A6           0.14487
           D1           0.00000   0.02938
           D2           0.00000   0.00000   0.02938
           D3           0.00000   0.00000   0.00000   0.02938
           D4           0.00000   0.00000   0.00000   0.00000   0.02938
 ITU=  1  1  0
     Eigenvalues ---    0.02938   0.02938   0.02938   0.11251   0.16000
     Eigenvalues ---    0.16000   0.16000   0.35339   0.35339   0.35339
     Eigenvalues ---    0.35353   0.57025
 En-DIIS/RFO-DIIS IScMMF=        0 using points:     3    2
 RFO step:  Lambda= 0.00000000D+00.
 NNeg= 0 NP= 2 Switch=  2.50D-03 Rises=F DC=  1.60D-05 SmlDif=  1.00D-05
 RMS Error=  0.1441924322D-04 NUsed= 2 EDIIS=F
 DidBck=F Rises=F RFO-DIIS coefs:    0.99810    0.00190
 Iteration  1 RMS(Cart)=  0.00003382 RMS(Int)=  0.00000000
 Iteration  2 RMS(Cart)=  0.00000000 RMS(Int)=  0.00000001
 ITry= 1 IFail=0 DXMaxC= 4.77D-05 DCOld= 1.00D+10 DXMaxT= 3.00D-01 DXLimC= 3.00D+00 Rises=F
 ClnCor:  largest displacement from symmetrization is 2.20D-11 for atom     1.
 Variable       Old X    -DE/DX   Delta X   Delta X   Delta X     New X
                                 (Linear)    (Quad)   (Total)
    R1        2.51516  -0.00003   0.00000  -0.00005  -0.00005   2.51511
    R2        2.05503   0.00001   0.00000   0.00003   0.00003   2.05505
    R3        2.05503   0.00001   0.00000   0.00003   0.00003   2.05505
    R4        2.05503   0.00001   0.00000   0.00003   0.00003   2.05505
    R5        2.05503   0.00001   0.00000   0.00003   0.00003   2.05505
    A1        2.12697   0.00000  -0.00001  -0.00001  -0.00002   2.12695
    A2        2.12697   0.00000  -0.00001  -0.00001  -0.00002   2.12695
    A3        2.02925   0.00001   0.00002   0.00002   0.00004   2.02928
    A4        2.12697   0.00000  -0.00001  -0.00001  -0.00002   2.12695
    A5        2.12697   0.00000  -0.00001  -0.00001  -0.00002   2.12695
    A6        2.02925   0.00001   0.00002   0.00002   0.00004   2.02928
    D1        3.14159   0.00000   0.00000   0.00000   0.00000   3.14159
    D2        0.00000   0.00000   0.00000   0.00000   0.00000   0.00000
    D3        0.00000   0.00000   0.00000   0.00000   0.00000   0.00000
    D4        3.14159   0.00000   0.00000   0.00000   0.00000   3.14159
         Item               Value     Threshold  Converged?
 Maximum Force            0.000030     0.000450     YES
 RMS     Force            0.000009     0.000300     YES
 Maximum Displacement     0.000048     0.001800     YES
 RMS     Displacement     0.000034     0.001200     YES
 Predicted change in Energy=-1.559359D-09
 Optimization completed.
    -- Stationary point found.
                           ----------------------------
                           !   Optimized Parameters   !
                           ! (Angstroms and Degrees)  !
 --------------------------                            --------------------------
 ! Name  Definition              Value          Derivative Info.                !
 --------------------------------------------------------------------------------
 ! R1    R(1,2)                  1.331          -DE/DX =    0.0                 !
 ! R2    R(1,3)                  1.0875         -DE/DX =    0.0                 !
 ! R3    R(1,4)                  1.0875         -DE/DX =    0.0                 !
 ! R4    R(2,5)                  1.0875         -DE/DX =    0.0                 !
 ! R5    R(2,6)                  1.0875         -DE/DX =    0.0                 !
 ! A1    A(2,1,3)              121.8664         -DE/DX =    0.0                 !
 ! A2    A(2,1,4)              121.8664         -DE/DX =    0.0                 !
 ! A3    A(3,1,4)              116.2672         -DE/DX =    0.0                 !
 ! A4    A(1,2,5)              121.8664         -DE/DX =    0.0                 !
 ! A5    A(1,2,6)              121.8664         -DE/DX =    0.0                 !
 ! A6    A(5,2,6)              116.2672         -DE/DX =    0.0                 !
 ! D1    D(3,1,2,5)            180.0            -DE/DX =    0.0                 !
 ! D2    D(3,1,2,6)              0.0            -DE/DX =    0.0                 !
 ! D3    D(4,1,2,5)              0.0            -DE/DX =    0.0                 !
 ! D4    D(4,1,2,6)            180.0            -DE/DX =    0.0                 !
 --------------------------------------------------------------------------------
 Lowest energy point so far.  Saving SCF results.
 GradGradGradGradGradGradGradGradGradGradGradGradGradGradGradGradGradGrad

 Largest change from initial coordinates is atom    4       1.745 Angstoms.
 Leave Link  103 at Thu Mar 19 18:09:28 2026, MaxMem=   536870912 cpu:         0.0
 (Enter C:\G09W\l202.exe)
                          Input orientation:                          
 ---------------------------------------------------------------------
 Center     Atomic      Atomic             Coordinates (Angstroms)
 Number     Number       Type             X           Y           Z
 ---------------------------------------------------------------------
      1          6           0       -0.664401   -0.037381   -0.006458
      2          6           0        0.664401    0.037381    0.006458
      3          1           0       -1.279918    0.754413   -0.426932
      4          1           0       -1.195258   -0.893672    0.402874
      5          1           0        1.279918   -0.754413    0.426932
      6          1           0        1.195258    0.893672   -0.402874
 ---------------------------------------------------------------------
                    Distance matrix (angstroms):
                    1          2          3          4          5
     1  C    0.000000
     2  C    1.330965   0.000000
     3  H    1.087473   2.117153   0.000000
     4  H    1.087473   2.117153   1.847141   0.000000
     5  H    2.117153   1.087473   3.091665   2.479207   0.000000
     6  H    2.117153   1.087473   2.479207   3.091665   1.847141
                    6
     6  H    0.000000
 Stoichiometry    C2H4
 Framework group  D2H[C2"(C.C),SG(H4)]
 Deg. of freedom     3
 Full point group                 D2H     NOp   8
 RotChk:  IX=0 Diff= 8.77D-16
 Largest Abelian subgroup         D2H     NOp   8
 Largest concise Abelian subgroup D2      NOp   4
                         Standard orientation:                         
 ---------------------------------------------------------------------
 Center     Atomic      Atomic             Coordinates (Angstroms)
 Number     Number       Type             X           Y           Z
 ---------------------------------------------------------------------
      1          6           0        0.000000    0.000000    0.665483
      2          6           0        0.000000    0.000000   -0.665483
      3          1           0        0.000000    0.923570    1.239603
      4          1           0        0.000000   -0.923570    1.239603
      5          1           0        0.000000   -0.923570   -1.239603
      6          1           0        0.000000    0.923570   -1.239603
 ---------------------------------------------------------------------
 Rotational constants (GHZ):    146.9711710     30.0402909     24.9422082
 Leave Link  202 at Thu Mar 19 18:09:28 2026, MaxMem=   536870912 cpu:         0.0
 (Enter C:\G09W\l601.exe)
 Copying SCF densities to generalized density rwf, IOpCl= 0 IROHF=0.

 **********************************************************************

            Population analysis using the SCF density.

 **********************************************************************

 Orbital symmetries:
       Occupied  (AG) (B1U) (AG) (B1U) (B2U) (AG) (B3G) (B3U)
       Virtual   (B2G) (AG) (B2U) (B1U) (B3G) (B1U) (AG) (B3U)
                 (B2U) (B2G) (AG) (B1U) (B2U) (B3G) (B1U) (AG)
                 (B1U) (B3G) (B3U) (B1G) (AU) (AG) (B2U) (AG) (B1U)
                 (B2G) (B3G) (B1U) (AG) (B1U)
 The electronic state is 1-AG.
 Alpha  occ. eigenvalues --  -10.18428 -10.18338  -0.75474  -0.57734  -0.46466
 Alpha  occ. eigenvalues --   -0.41641  -0.35321  -0.26662
 Alpha virt. eigenvalues --    0.01878   0.12237   0.14025   0.15756   0.24406
 Alpha virt. eigenvalues --    0.33237   0.48036   0.54847   0.56853   0.63727
 Alpha virt. eigenvalues --    0.65524   0.69901   0.84750   0.87219   0.93172
 Alpha virt. eigenvalues --    0.94111   1.10572   1.21572   1.46273   1.54519
 Alpha virt. eigenvalues --    1.83288   1.89028   1.98791   2.08821   2.28539
 Alpha virt. eigenvalues --    2.38621   2.70148   2.70529   4.09688   4.24635
          Condensed to atoms (all electrons):
               1          2          3          4          5          6
     1  C    4.914266   0.687081   0.377543   0.377543  -0.035488  -0.035488
     2  C    0.687081   4.914266  -0.035488  -0.035488   0.377543   0.377543
     3  H    0.377543  -0.035488   0.562351  -0.043551   0.005143  -0.008728
     4  H    0.377543  -0.035488  -0.043551   0.562351  -0.008728   0.005143
     5  H   -0.035488   0.377543   0.005143  -0.008728   0.562351  -0.043551
     6  H   -0.035488   0.377543  -0.008728   0.005143  -0.043551   0.562351
 Mulliken charges:
               1
     1  C   -0.285458
     2  C   -0.285458
     3  H    0.142729
     4  H    0.142729
     5  H    0.142729
     6  H    0.142729
 Sum of Mulliken charges =   0.00000
 Mulliken charges with hydrogens summed into heavy atoms:
               1
     1  C    0.000000
     2  C    0.000000
 Electronic spatial extent (au):  <R**2>=             82.2163
 Charge=              0.0000 electrons
 Dipole moment (field-independent basis, Debye):
    X=              0.0000    Y=              0.0000    Z=              0.0000  Tot=              0.0000
 Quadrupole moment (field-independent basis, Debye-Ang):
   XX=            -15.0313   YY=            -12.1183   ZZ=            -11.9970
   XY=              0.0000   XZ=              0.0000   YZ=              0.0000
 Traceless Quadrupole moment (field-independent basis, Debye-Ang):
   XX=             -1.9825   YY=              0.9306   ZZ=              1.0519
   XY=              0.0000   XZ=              0.0000   YZ=              0.0000
 Octapole moment (field-independent basis, Debye-Ang**2):
  XXX=              0.0000  YYY=              0.0000  ZZZ=              0.0000  XYY=              0.0000
  XXY=              0.0000  XXZ=              0.0000  XZZ=              0.0000  YZZ=              0.0000
  YYZ=              0.0000  XYZ=              0.0000
 Hexadecapole moment (field-independent basis, Debye-Ang**3):
 XXXX=            -15.5785 YYYY=            -26.1753 ZZZZ=            -66.7295 XXXY=              0.0000
 XXXZ=              0.0000 YYYX=              0.0000 YYYZ=              0.0000 ZZZX=              0.0000
 ZZZY=              0.0000 XXYY=             -7.5223 XXZZ=            -14.5839 YYZZ=            -13.2614
 XXYZ=              0.0000 YYXZ=              0.0000 ZZXY=              0.0000
 N-N= 3.333282266395D+01 E-N=-2.480510756074D+02  KE= 7.777003005303D+01
 Symmetry AG   KE= 3.738146467127D+01
 Symmetry B1G  KE= 1.451645858645D-32
 Symmetry B2G  KE= 4.704230650324D-32
 Symmetry B3G  KE= 2.094472189948D+00
 Symmetry AU   KE= 1.086171495962D-32
 Symmetry B1U  KE= 3.432916017059D+01
 Symmetry B2U  KE= 1.878396111972D+00
 Symmetry B3U  KE= 2.086536909252D+00
 No NMR shielding tensors so no spin-rotation constants.
 Leave Link  601 at Thu Mar 19 18:09:28 2026, MaxMem=   536870912 cpu:         0.0
 (Enter C:\G09W\l9999.exe)
 1|1|UNPC-DESKTOP-GS7R1K3|FOpt|RB3LYP|6-31G(d)|C2H4|1172|19-Mar-2026|0|
 |#p opt B3LYP/6-31G(d)||ethylene||0,1|C,-0.6644005051,-0.0373807139,-0
 .0064578142|C,0.6644005051,0.0373807139,0.0064578142|H,-1.2799176472,0
 .7544126825,-0.4269322326|H,-1.1952581094,-0.8936718131,0.4028741154|H
 ,1.2799176472,-0.7544126825,0.4269322326|H,1.1952581094,0.8936718131,-
 0.4028741154||Version=EM64W-G09RevD.01|State=1-AG|HF=-78.5874583|RMSD=
 2.954e-009|RMSF=1.194e-005|Dipole=0.,0.,0.|Quadrupole=0.7792724,0.2573
 406,-1.0366131,0.0379473,0.0664489,-0.8668666|PG=D02H [C2"(C1.C1),SG(H
 4)]||@


 SUPPORT THE RIGHT TO ARM BEARS!
 (ADD A CLAWS TO THE BILL OF RIGHTS)
 Job cpu time:       0 days  0 hours  0 minutes 11.0 seconds.
 File lengths (MBytes):  RWF=      5 Int=      0 D2E=      0 Chk=      1 Scr=      1
 Normal termination of Gaussian 09 at Thu Mar 19 18:09:28 2026.
