 Entering Gaussian System, Link 0=C:\G09W\g09.exe
 Input=methane_xtb.com
 Output=C:\workspace\delta_chem\benchmark_results\methane\methane_xtb.out
 Initial command:
 C:\G09W\l1.exe ".\Gau-13392.inp" "C:\workspace\delta_chem\benchmark_results\methane\methane_xtb.out" /scrdir=".\"
 Entering Link 1 = C:\G09W\l1.exe PID=     17976.
  
 Copyright (c) 1988,1990,1992,1993,1995,1998,2003,2009,2013,
            Gaussian, Inc.  All Rights Reserved.
  
 This is part of the Gaussian(R) 09 program.  It is based on
 the Gaussian(R) 03 system (copyright 2003, Gaussian, Inc.),
 the Gaussian(R) 98 system (copyright 1998, Gaussian, Inc.),
 the Gaussian(R) 94 system (copyright 1995, Gaussian, Inc.),
 the Gaussian 92(TM) system (copyright 1992, Gaussian, Inc.),
 the Gaussian 90(TM) system (copyright 1990, Gaussian, Inc.),
 the Gaussian 88(TM) system (copyright 1988, Gaussian, Inc.),
 the Gaussian 86(TM) system (copyright 1986, Carnegie Mellon
 University), and the Gaussian 82(TM) system (copyright 1983,
 Carnegie Mellon University). Gaussian is a federally registered
 trademark of Gaussian, Inc.
  
 This software contains proprietary and confidential information,
 including trade secrets, belonging to Gaussian, Inc.
  
 This software is provided under written license and may be
 used, copied, transmitted, or stored only in accord with that
 written license.
  
 The following legend is applicable only to US Government
 contracts under FAR:
  
                    RESTRICTED RIGHTS LEGEND
  
 Use, reproduction and disclosure by the US Government is
 subject to restrictions as set forth in subparagraphs (a)
 and (c) of the Commercial Computer Software - Restricted
 Rights clause in FAR 52.227-19.
  
 Gaussian, Inc.
 340 Quinnipiac St., Bldg. 40, Wallingford CT 06492
  
  
 ---------------------------------------------------------------
 Warning -- This program may not be used in any manner that
 competes with the business of Gaussian, Inc. or will provide
 assistance to any competitor of Gaussian, Inc.  The licensee
 of this program is prohibited from giving any competitor of
 Gaussian, Inc. access to this program.  By using this program,
 the user acknowledges that Gaussian, Inc. is engaged in the
 business of creating and licensing software in the field of
 computational chemistry and represents and warrants to the
 licensee that it is not a competitor of Gaussian, Inc. and that
 it will not use this program in any manner prohibited above.
 ---------------------------------------------------------------
  

 Cite this work as:
 Gaussian 09, Revision D.01,
 M. J. Frisch, G. W. Trucks, H. B. Schlegel, G. E. Scuseria, 
 M. A. Robb, J. R. Cheeseman, G. Scalmani, V. Barone, B. Mennucci, 
 G. A. Petersson, H. Nakatsuji, M. Caricato, X. Li, H. P. Hratchian, 
 A. F. Izmaylov, J. Bloino, G. Zheng, J. L. Sonnenberg, M. Hada, 
 M. Ehara, K. Toyota, R. Fukuda, J. Hasegawa, M. Ishida, T. Nakajima, 
 Y. Honda, O. Kitao, H. Nakai, T. Vreven, J. A. Montgomery, Jr., 
 J. E. Peralta, F. Ogliaro, M. Bearpark, J. J. Heyd, E. Brothers, 
 K. N. Kudin, V. N. Staroverov, T. Keith, R. Kobayashi, J. Normand, 
 K. Raghavachari, A. Rendell, J. C. Burant, S. S. Iyengar, J. Tomasi, 
 M. Cossi, N. Rega, J. M. Millam, M. Klene, J. E. Knox, J. B. Cross, 
 V. Bakken, C. Adamo, J. Jaramillo, R. Gomperts, R. E. Stratmann, 
 O. Yazyev, A. J. Austin, R. Cammi, C. Pomelli, J. W. Ochterski, 
 R. L. Martin, K. Morokuma, V. G. Zakrzewski, G. A. Voth, 
 P. Salvador, J. J. Dannenberg, S. Dapprich, A. D. Daniels, 
 O. Farkas, J. B. Foresman, J. V. Ortiz, J. Cioslowski, 
 and D. J. Fox, Gaussian, Inc., Wallingford CT, 2013.
 
 ******************************************
 Gaussian 09:  EM64W-G09RevD.01 13-Apr-2013
                19-Mar-2026 
 ******************************************
 %NProcShared=4
 Will use up to    4 processors via shared memory.
 %Mem=4GB
 %Chk=methane_xtb.chk
 ---------------------
 #p opt B3LYP/6-31G(d)
 ---------------------
 1/14=-1,18=20,19=15,26=3,38=1/1,3;
 2/9=110,12=2,17=6,18=5,40=1/2;
 3/5=1,6=6,7=1,11=2,16=1,25=1,30=1,71=1,74=-5/1,2,3;
 4//1;
 5/5=2,38=5/2;
 6/7=2,8=2,9=2,10=2,28=1/1;
 7//1,2,3,16;
 1/14=-1,18=20,19=15,26=3/3(2);
 2/9=110/2;
 99//99;
 2/9=110/2;
 3/5=1,6=6,7=1,11=2,16=1,25=1,30=1,71=1,74=-5/1,2,3;
 4/5=5,16=3,69=1/1;
 5/5=2,38=5/2;
 7//1,2,3,16;
 1/14=-1,18=20,19=15,26=3/3(-5);
 2/9=110/2;
 6/7=2,8=2,9=2,10=2,19=2,28=1/1;
 99/9=1/99;
 Leave Link    1 at Thu Mar 19 16:56:50 2026, MaxMem=   536870912 cpu:         0.0
 (Enter C:\G09W\l101.exe)
 -------------
 methane [xtb]
 -------------
 Symbolic Z-matrix:
 Charge =  0 Multiplicity = 1
 C                    -0.43349   0.95528   1.54379 
 H                    -0.09263  -0.04954   0.18964 
 H                     1.39219   1.52934  -1.13785 
 H                    -1.55988  -0.6789   -0.90862 
 H                     0.69381  -1.75619   0.31303 
 
 Add virtual bond connecting atoms H2         and C1         Dist= 3.25D+00.
 Add virtual bond connecting atoms H5         and H2         Dist= 3.56D+00.
 Add virtual bond connecting atoms H4         and H2         Dist= 3.66D+00.
 Add virtual bond connecting atoms H3         and H2         Dist= 4.80D+00.
 NAtoms=      5 NQM=        5 NQMF=       0 NMMI=      0 NMMIF=      0
                NMic=       0 NMicF=      0.
                    Isotopes and Nuclear Properties:
 (Nuclear quadrupole moments (NQMom) in fm**2, nuclear magnetic moments (NMagM)
  in nuclear magnetons)

  Atom         1           2           3           4           5
 IAtWgt=          12           1           1           1           1
 AtmWgt=  12.0000000   1.0078250   1.0078250   1.0078250   1.0078250
 NucSpn=           0           1           1           1           1
 AtZEff=   0.0000000   0.0000000   0.0000000   0.0000000   0.0000000
 NQMom=    0.0000000   0.0000000   0.0000000   0.0000000   0.0000000
 NMagM=    0.0000000   2.7928460   2.7928460   2.7928460   2.7928460
 AtZNuc=   6.0000000   1.0000000   1.0000000   1.0000000   1.0000000
 Leave Link  101 at Thu Mar 19 16:56:51 2026, MaxMem=   536870912 cpu:         0.0
 (Enter C:\G09W\l103.exe)

 GradGradGradGradGradGradGradGradGradGradGradGradGradGradGradGradGradGrad
 Berny optimization.
 Initialization pass.
                           ----------------------------
                           !    Initial Parameters    !
                           ! (Angstroms and Degrees)  !
 --------------------------                            --------------------------
 ! Name  Definition              Value          Derivative Info.                !
 --------------------------------------------------------------------------------
 ! R1    R(1,2)                  1.7203         estimate D2E/DX2                !
 ! R2    R(2,3)                  2.5416         estimate D2E/DX2                !
 ! R3    R(2,4)                  1.9378         estimate D2E/DX2                !
 ! R4    R(2,5)                  1.8832         estimate D2E/DX2                !
 ! A1    A(1,2,3)               99.4412         estimate D2E/DX2                !
 ! A2    A(1,2,4)              119.0644         estimate D2E/DX2                !
 ! A3    A(1,2,5)              124.0906         estimate D2E/DX2                !
 ! A4    A(3,2,4)              110.3701         estimate D2E/DX2                !
 ! A5    A(3,2,5)              110.6847         estimate D2E/DX2                !
 ! A6    A(4,2,5)               93.3828         estimate D2E/DX2                !
 ! D1    D(3,2,5,4)           -113.2681         estimate D2E/DX2                !
 --------------------------------------------------------------------------------
 Trust Radius=3.00D-01 FncErr=1.00D-07 GrdErr=1.00D-06
 Number of steps in this run=     21 maximum allowed number of steps=    100.
 GradGradGradGradGradGradGradGradGradGradGradGradGradGradGradGradGradGrad

 Leave Link  103 at Thu Mar 19 16:56:52 2026, MaxMem=   536870912 cpu:         0.0
 (Enter C:\G09W\l202.exe)
                          Input orientation:                          
 ---------------------------------------------------------------------
 Center     Atomic      Atomic             Coordinates (Angstroms)
 Number     Number       Type             X           Y           Z
 ---------------------------------------------------------------------
      1          6           0       -0.433492    0.955285    1.543791
      2          1           0       -0.092634   -0.049539    0.189644
      3          1           0        1.392193    1.529342   -1.137845
      4          1           0       -1.559882   -0.678896   -0.908616
      5          1           0        0.693815   -1.756191    0.313027
 ---------------------------------------------------------------------
                    Distance matrix (angstroms):
                    1          2          3          4          5
     1  C    0.000000
     2  H    1.720340   0.000000
     3  H    3.294517   2.541614   0.000000
     4  H    3.154934   1.937804   3.693726   0.000000
     5  H    3.183975   1.883185   3.658892   2.780670   0.000000
 Stoichiometry    CH4
 Framework group  C1[X(CH4)]
 Deg. of freedom     9
 Full point group                 C1      NOp   1
 Largest Abelian subgroup         C1      NOp   1
 Largest concise Abelian subgroup C1      NOp   1
                         Standard orientation:                         
 ---------------------------------------------------------------------
 Center     Atomic      Atomic             Coordinates (Angstroms)
 Number     Number       Type             X           Y           Z
 ---------------------------------------------------------------------
      1          6           0        0.929673   -0.081290   -0.006659
      2          1           0       -0.790510   -0.080855   -0.029977
      3          1           0       -1.207989    2.424775    0.055629
      4          1           0       -1.751524   -0.973906    1.396206
      5          1           0       -1.828014   -0.882273   -1.381901
 ---------------------------------------------------------------------
 Rotational constants (GHZ):     43.4836430     24.1539144     20.4125552
 Leave Link  202 at Thu Mar 19 16:56:52 2026, MaxMem=   536870912 cpu:         0.0
 (Enter C:\G09W\l301.exe)
 Standard basis: 6-31G(d) (6D, 7F)
 Ernie: Thresh=  0.10000D-02 Tol=  0.10000D-05 Strict=F.
 There are    23 symmetry adapted cartesian basis functions of A   symmetry.
 There are    23 symmetry adapted basis functions of A   symmetry.
    23 basis functions,    44 primitive gaussians,    23 cartesian basis functions
     5 alpha electrons        5 beta electrons
       nuclear repulsion energy         6.0534091665 Hartrees.
 IExCor=  402 DFT=T Ex+Corr=B3LYP ExCW=0 ScaHFX=  0.200000
 ScaDFX=  0.800000  0.720000  1.000000  0.810000 ScalE2=  1.000000  1.000000
 IRadAn=      0 IRanWt=     -1 IRanGd=            0 ICorTp=0 IEmpDi=  4
 NAtoms=    5 NActive=    5 NUniq=    5 SFac= 1.00D+00 NAtFMM=   60 NAOKFM=F Big=F
 Integral buffers will be    131072 words long.
 Raffenetti 2 integral format.
 Two-electron integral symmetry is turned on.
 Leave Link  301 at Thu Mar 19 16:56:52 2026, MaxMem=   536870912 cpu:         0.0
 (Enter C:\G09W\l302.exe)
 NPDir=0 NMtPBC=     1 NCelOv=     1 NCel=       1 NClECP=     1 NCelD=      1
         NCelK=      1 NCelE2=     1 NClLst=     1 CellRange=     0.0.
 One-electron integrals computed using PRISM.
 NBasis=    23 RedAO= T EigKep=  4.73D-02  NBF=    23
 NBsUse=    23 1.00D-06 EigRej= -1.00D+00 NBFU=    23
 Precomputing XC quadrature grid using
 IXCGrd= 4 IRadAn=           0 IRanWt=          -1 IRanGd=           0 AccXCQ= 0.00D+00.
 Generated NRdTot=       0 NPtTot=           0 NUsed=           0 NTot=          32
 NSgBfM=    23    23    23    23    23 MxSgAt=     5 MxSgA2=     5.
 Leave Link  302 at Thu Mar 19 16:56:53 2026, MaxMem=   536870912 cpu:         0.0
 (Enter C:\G09W\l303.exe)
 DipDrv:  MaxL=1.
 Leave Link  303 at Thu Mar 19 16:56:53 2026, MaxMem=   536870912 cpu:         0.0
 (Enter C:\G09W\l401.exe)
 ExpMin= 1.61D-01 ExpMax= 3.05D+03 ExpMxC= 4.57D+02 IAcc=1 IRadAn=         1 AccDes= 0.00D+00
 Harris functional with IExCor=  402 and IRadAn=       1 diagonalized for initial guess.
 HarFok:  IExCor=  402 AccDes= 0.00D+00 IRadAn=         1 IDoV= 1 UseB2=F ITyADJ=14
 ICtDFT=  3500011 ScaDFX=  1.000000  1.000000  1.000000  1.000000
 FoFCou: FMM=F IPFlag=           0 FMFlag=      100000 FMFlg1=           0
         NFxFlg=           0 DoJE=T BraDBF=F KetDBF=T FulRan=T
         wScrn=  0.000000 ICntrl=     500 IOpCl=  0 I1Cent=   200000004 NGrid=           0
         NMat0=    1 NMatS0=      1 NMatT0=    0 NMatD0=    1 NMtDS0=    0 NMtDT0=    0
 Petite list used in FoFCou.
 Harris En= -39.8573595027097    
 JPrj=0 DoOrth=F DoCkMO=F.
 Leave Link  401 at Thu Mar 19 16:56:54 2026, MaxMem=   536870912 cpu:         0.0
 (Enter C:\G09W\l502.exe)
 Closed shell SCF:
 Using DIIS extrapolation, IDIIS=  1040.
 Integral symmetry usage will be decided dynamically.
 Keep R1 ints in memory in canonical form, NReq=918238.
 IVT=       20458 IEndB=       20458 NGot=   536870912 MDV=   536812229
 LenX=   536812229 LenY=   536811259
 Requested convergence on RMS density matrix=1.00D-08 within 128 cycles.
 Requested convergence on MAX density matrix=1.00D-06.
 Requested convergence on             energy=1.00D-06.
 No special actions if energy rises.
 FoFCou: FMM=F IPFlag=           0 FMFlag=           0 FMFlg1=           0
         NFxFlg=           0 DoJE=F BraDBF=F KetDBF=F FulRan=T
         wScrn=  0.000000 ICntrl=     600 IOpCl=  0 I1Cent=           0 NGrid=           0
         NMat0=    1 NMatS0=    276 NMatT0=    0 NMatD0=    1 NMtDS0=    0 NMtDT0=    0
 Symmetry not used in FoFCou.
 Integral accuracy reduced to 1.0D-05 until final iterations.

 Cycle   1  Pass 0  IDiag  1:
 E= -39.3187642908093    
 DIIS: error= 1.08D-01 at cycle   1 NSaved=   1.
 NSaved= 1 IEnMin= 1 EnMin= -39.3187642908093     IErMin= 1 ErrMin= 1.08D-01
 ErrMax= 1.08D-01  0.00D+00 EMaxC= 1.00D-01 BMatC= 1.57D-01 BMatP= 1.57D-01
 IDIUse=3 WtCom= 0.00D+00 WtEn= 1.00D+00
 Coeff-Com:  0.100D+01
 Coeff-En:   0.100D+01
 Coeff:      0.100D+01
 Gap=    -0.179 Goal=   None    Shift=    0.000
 GapD=   -0.179 DampG=0.250 DampE=0.250 DampFc=0.2500 IDamp=-1.
 Damping current iteration by 2.50D-01
 RMSDP=7.07D-02 MaxDP=6.94D-01              OVMax= 9.77D-01

 Cycle   2  Pass 0  IDiag  1:
 E= -39.6063457233798     Delta-E=       -0.287581432570 Rises=F Damp=T
 DIIS: error= 2.35D-02 at cycle   2 NSaved=   2.
 NSaved= 2 IEnMin= 2 EnMin= -39.6063457233798     IErMin= 2 ErrMin= 2.35D-02
 ErrMax= 2.35D-02  0.00D+00 EMaxC= 1.00D-01 BMatC= 1.42D-02 BMatP= 1.57D-01
 IDIUse=3 WtCom= 7.65D-01 WtEn= 2.35D-01
 Coeff-Com:  0.124D+00 0.876D+00
 Coeff-En:   0.196D+00 0.804D+00
 Coeff:      0.141D+00 0.859D+00
 Gap=    -0.047 Goal=   None    Shift=    0.000
 RMSDP=3.50D-02 MaxDP=2.90D-01 DE=-2.88D-01 OVMax= 6.78D-01

 Cycle   3  Pass 0  IDiag  1:
 E= -39.1832907350863     Delta-E=        0.423054988293 Rises=F Damp=F
 DIIS: error= 1.23D-01 at cycle   3 NSaved=   3.
 NSaved= 3 IEnMin= 2 EnMin= -39.6063457233798     IErMin= 2 ErrMin= 2.35D-02
 ErrMax= 1.23D-01  0.00D+00 EMaxC= 1.00D-01 BMatC= 2.41D-01 BMatP= 1.42D-02
 IDIUse=2 WtCom= 0.00D+00 WtEn= 1.00D+00
 EnCoef did   100 forward-backward iterations
 Coeff-En:   0.524D+00 0.241D-01 0.452D+00
 Coeff:      0.524D+00 0.241D-01 0.452D+00
 Gap=     0.050 Goal=   None    Shift=    0.000
 RMSDP=2.66D-02 MaxDP=1.71D-01 DE= 4.23D-01 OVMax= 5.18D-01

 Cycle   4  Pass 0  IDiag  1:
 E= -39.4590932580513     Delta-E=       -0.275802522965 Rises=F Damp=F
 DIIS: error= 1.20D-01 at cycle   4 NSaved=   4.
 NSaved= 4 IEnMin= 2 EnMin= -39.6063457233798     IErMin= 2 ErrMin= 2.35D-02
 ErrMax= 1.20D-01  0.00D+00 EMaxC= 1.00D-01 BMatC= 2.10D-01 BMatP= 1.42D-02
 IDIUse=2 WtCom= 0.00D+00 WtEn= 1.00D+00
 EnCoef did   100 forward-backward iterations
 Coeff-En:   0.456D+00 0.120D-01 0.735D-01 0.459D+00
 Coeff:      0.456D+00 0.120D-01 0.735D-01 0.459D+00
 Gap=     0.050 Goal=   None    Shift=    0.000
 RMSDP=3.07D-02 MaxDP=3.29D-01 DE=-2.76D-01 OVMax= 6.90D-01

 Cycle   5  Pass 0  IDiag  1:
 E= -39.6559713454045     Delta-E=       -0.196878087353 Rises=F Damp=F
 DIIS: error= 2.83D-02 at cycle   5 NSaved=   5.
 NSaved= 5 IEnMin= 5 EnMin= -39.6559713454045     IErMin= 2 ErrMin= 2.35D-02
 ErrMax= 2.83D-02  0.00D+00 EMaxC= 1.00D-01 BMatC= 2.88D-02 BMatP= 1.42D-02
 IDIUse=2 WtCom= 0.00D+00 WtEn= 1.00D+00
 EnCoef did   100 forward-backward iterations
 Coeff-En:   0.340D+00 0.328D-02 0.315D-02 0.395D+00 0.258D+00
 Coeff:      0.340D+00 0.328D-02 0.315D-02 0.395D+00 0.258D+00
 Gap=     0.036 Goal=   None    Shift=    0.000
 RMSDP=2.69D-02 MaxDP=2.36D-01 DE=-1.97D-01 OVMax= 5.13D-01

 Cycle   6  Pass 0  IDiag  1:
 E= -39.7530325300171     Delta-E=       -0.097061184613 Rises=F Damp=F
 DIIS: error= 3.13D-02 at cycle   6 NSaved=   6.
 NSaved= 6 IEnMin= 6 EnMin= -39.7530325300171     IErMin= 2 ErrMin= 2.35D-02
 ErrMax= 3.13D-02  0.00D+00 EMaxC= 1.00D-01 BMatC= 1.03D-02 BMatP= 1.42D-02
 IDIUse=3 WtCom= 6.87D-01 WtEn= 3.13D-01
 EnCoef did     1 forward-backward iterations
 Coeff-Com:  0.447D-01 0.106D+00-0.452D-01 0.105D+00 0.276D+00 0.514D+00
 Coeff-En:   0.000D+00 0.000D+00 0.000D+00 0.429D-01 0.291D+00 0.666D+00
 Coeff:      0.307D-01 0.729D-01-0.311D-01 0.853D-01 0.281D+00 0.561D+00
 Gap=     0.044 Goal=   None    Shift=    0.000
 RMSDP=2.44D-02 MaxDP=2.75D-01 DE=-9.71D-02 OVMax= 5.63D-01

 Cycle   7  Pass 0  IDiag  1:
 E= -39.6653223093295     Delta-E=        0.087710220688 Rises=F Damp=F
 DIIS: error= 5.05D-02 at cycle   7 NSaved=   7.
 NSaved= 7 IEnMin= 6 EnMin= -39.7530325300171     IErMin= 2 ErrMin= 2.35D-02
 ErrMax= 5.05D-02  0.00D+00 EMaxC= 1.00D-01 BMatC= 1.99D-02 BMatP= 1.03D-02
 IDIUse=2 WtCom= 0.00D+00 WtEn= 1.00D+00
 EnCoef did    13 forward-backward iterations
 Coeff-En:   0.000D+00 0.000D+00 0.000D+00 0.000D+00 0.151D+00 0.643D+00
 Coeff-En:   0.206D+00
 Coeff:      0.000D+00 0.000D+00 0.000D+00 0.000D+00 0.151D+00 0.643D+00
 Coeff:      0.206D+00
 Gap=     0.040 Goal=   None    Shift=    0.000
 RMSDP=1.20D-02 MaxDP=9.88D-02 DE= 8.77D-02 OVMax= 2.72D-01

 Cycle   8  Pass 0  IDiag  1:
 E= -39.7492199885666     Delta-E=       -0.083897679237 Rises=F Damp=F
 DIIS: error= 3.38D-02 at cycle   8 NSaved=   8.
 NSaved= 8 IEnMin= 6 EnMin= -39.7530325300171     IErMin= 2 ErrMin= 2.35D-02
 ErrMax= 3.38D-02  0.00D+00 EMaxC= 1.00D-01 BMatC= 1.58D-02 BMatP= 1.03D-02
 IDIUse=2 WtCom= 0.00D+00 WtEn= 1.00D+00
 Coeff-En:   0.000D+00 0.000D+00 0.000D+00 0.000D+00 0.000D+00 0.513D+00
 Coeff-En:   0.000D+00 0.487D+00
 Coeff:      0.000D+00 0.000D+00 0.000D+00 0.000D+00 0.000D+00 0.513D+00
 Coeff:      0.000D+00 0.487D+00
 Gap=     0.038 Goal=   None    Shift=    0.000
 RMSDP=1.48D-02 MaxDP=1.02D-01 DE=-8.39D-02 OVMax= 2.67D-01

 Cycle   9  Pass 0  IDiag  1:
 E= -39.6580333225642     Delta-E=        0.091186666002 Rises=F Damp=F
 DIIS: error= 7.21D-02 at cycle   9 NSaved=   9.
 NSaved= 9 IEnMin= 6 EnMin= -39.7530325300171     IErMin= 2 ErrMin= 2.35D-02
 ErrMax= 7.21D-02  0.00D+00 EMaxC= 1.00D-01 BMatC= 6.29D-02 BMatP= 1.03D-02
 IDIUse=2 WtCom= 0.00D+00 WtEn= 1.00D+00
 EnCoef did     3 forward-backward iterations
 Coeff-En:   0.000D+00 0.000D+00 0.000D+00 0.000D+00 0.000D+00 0.465D+00
 Coeff-En:   0.000D+00 0.461D+00 0.742D-01
 Coeff:      0.000D+00 0.000D+00 0.000D+00 0.000D+00 0.000D+00 0.465D+00
 Coeff:      0.000D+00 0.461D+00 0.742D-01
 Gap=     0.039 Goal=   None    Shift=    0.000
 RMSDP=9.06D-03 MaxDP=6.58D-02 DE= 9.12D-02 OVMax= 1.86D-01

 Cycle  10  Pass 0  IDiag  1:
 E= -39.7825908218995     Delta-E=       -0.124557499335 Rises=F Damp=F
 DIIS: error= 2.45D-02 at cycle  10 NSaved=  10.
 NSaved=10 IEnMin=10 EnMin= -39.7825908218995     IErMin= 2 ErrMin= 2.35D-02
 ErrMax= 2.45D-02  0.00D+00 EMaxC= 1.00D-01 BMatC= 5.91D-03 BMatP= 1.03D-02
 IDIUse=3 WtCom= 7.55D-01 WtEn= 2.45D-01
 EnCoef did   100 forward-backward iterations
 Coeff-Com: -0.129D-02-0.160D-01 0.760D-02 0.424D-01-0.224D-01 0.163D+00
 Coeff-Com: -0.552D-01 0.202D+00-0.115D+00 0.794D+00
 Coeff-En:   0.000D+00 0.000D+00 0.000D+00 0.367D-02 0.000D+00 0.287D+00
 Coeff-En:   0.000D+00 0.300D+00 0.000D+00 0.409D+00
 Coeff:     -0.971D-03-0.121D-01 0.573D-02 0.329D-01-0.169D-01 0.193D+00
 Coeff:     -0.417D-01 0.226D+00-0.864D-01 0.700D+00
 Gap=     0.036 Goal=   None    Shift=    0.000
 RMSDP=3.84D-03 MaxDP=3.51D-02 DE=-1.25D-01 OVMax= 8.61D-02

 Cycle  11  Pass 0  IDiag  1:
 E= -39.7921799806217     Delta-E=       -0.009589158722 Rises=F Damp=F
 DIIS: error= 4.25D-03 at cycle  11 NSaved=  11.
 NSaved=11 IEnMin=11 EnMin= -39.7921799806217     IErMin=11 ErrMin= 4.25D-03
 ErrMax= 4.25D-03  0.00D+00 EMaxC= 1.00D-01 BMatC= 3.69D-04 BMatP= 5.91D-03
 IDIUse=3 WtCom= 9.57D-01 WtEn= 4.25D-02
 EnCoef did     2 forward-backward iterations
 Coeff-Com:  0.217D-03-0.985D-02-0.194D-04 0.492D-02-0.168D-01 0.529D-01
 Coeff-Com:  0.345D-01-0.731D-01-0.213D-02 0.121D+00 0.889D+00
 Coeff-En:   0.000D+00 0.000D+00 0.000D+00 0.000D+00 0.000D+00 0.146D-01
 Coeff-En:   0.000D+00 0.000D+00 0.000D+00 0.128D+00 0.858D+00
 Coeff:      0.208D-03-0.943D-02-0.186D-04 0.472D-02-0.161D-01 0.513D-01
 Coeff:      0.330D-01-0.700D-01-0.204D-02 0.121D+00 0.887D+00
 Gap=     0.037 Goal=   None    Shift=    0.000
 RMSDP=1.44D-03 MaxDP=8.70D-03 DE=-9.59D-03 OVMax= 2.81D-02

 Cycle  12  Pass 0  IDiag  1:
 E= -39.7930467995328     Delta-E=       -0.000866818911 Rises=F Damp=F
 DIIS: error= 6.97D-04 at cycle  12 NSaved=  12.
 NSaved=12 IEnMin=12 EnMin= -39.7930467995328     IErMin=12 ErrMin= 6.97D-04
 ErrMax= 6.97D-04  0.00D+00 EMaxC= 1.00D-01 BMatC= 1.06D-05 BMatP= 3.69D-04
 IDIUse=3 WtCom= 9.93D-01 WtEn= 6.97D-03
 Coeff-Com: -0.640D-03-0.355D-02-0.382D-03-0.449D-02-0.327D-02 0.369D-02
 Coeff-Com:  0.118D-01-0.138D-01 0.150D-01-0.222D-01 0.163D+00 0.855D+00
 Coeff-En:   0.000D+00 0.000D+00 0.000D+00 0.000D+00 0.000D+00 0.000D+00
 Coeff-En:   0.000D+00 0.000D+00 0.000D+00 0.000D+00 0.000D+00 0.100D+01
 Coeff:     -0.635D-03-0.353D-02-0.379D-03-0.446D-02-0.325D-02 0.366D-02
 Coeff:      0.117D-01-0.138D-01 0.149D-01-0.220D-01 0.162D+00 0.856D+00
 Gap=     0.037 Goal=   None    Shift=    0.000
 RMSDP=7.01D-04 MaxDP=5.25D-03 DE=-8.67D-04 OVMax= 1.33D-02

 Cycle  13  Pass 0  IDiag  1:
 E= -39.7930043788782     Delta-E=        0.000042420655 Rises=F Damp=F
 DIIS: error= 2.53D-03 at cycle  13 NSaved=  13.
 NSaved=13 IEnMin=12 EnMin= -39.7930467995328     IErMin=12 ErrMin= 6.97D-04
 ErrMax= 2.53D-03  0.00D+00 EMaxC= 1.00D-01 BMatC= 7.05D-05 BMatP= 1.06D-05
 IDIUse=3 WtCom= 9.93D-01 WtEn= 6.97D-03
 Rare condition: small coef for last iteration:  0.000D+00
 Coeff-Com: -0.108D-02 0.930D-03-0.973D-03-0.302D-02-0.320D-02 0.164D-02
 Coeff-Com:  0.207D-02 0.430D-02 0.761D-02 0.861D-01 0.295D-01-0.315D+00
 Coeff-Com:  0.119D+01
 Coeff-En:   0.000D+00 0.000D+00 0.000D+00 0.000D+00 0.000D+00 0.000D+00
 Coeff-En:   0.000D+00 0.000D+00 0.000D+00 0.434D-01 0.000D+00 0.000D+00
 Coeff-En:   0.957D+00
 Coeff:     -0.108D-02 0.930D-03-0.973D-03-0.302D-02-0.320D-02 0.164D-02
 Coeff:      0.207D-02 0.430D-02 0.761D-02 0.861D-01 0.295D-01-0.315D+00
 Coeff:      0.119D+01
 Gap=     0.037 Goal=   None    Shift=    0.000
 RMSDP=6.22D-04 MaxDP=3.16D-03 DE= 4.24D-05 OVMax= 1.42D-02

 Cycle  14  Pass 0  IDiag  1:
 E= -39.7931008172213     Delta-E=       -0.000096438343 Rises=F Damp=F
 DIIS: error= 1.46D-03 at cycle  14 NSaved=  14.
 NSaved=14 IEnMin=14 EnMin= -39.7931008172213     IErMin=12 ErrMin= 6.97D-04
 ErrMax= 1.46D-03  0.00D+00 EMaxC= 1.00D-01 BMatC= 3.51D-05 BMatP= 1.06D-05
 IDIUse=3 WtCom= 9.93D-01 WtEn= 6.97D-03
 Coeff-Com:  0.440D-03 0.199D-02 0.409D-04-0.179D-02 0.807D-04 0.581D-02
 Coeff-Com:  0.155D-02-0.290D-01 0.245D-02 0.187D-01 0.430D-01-0.446D-01
 Coeff-Com: -0.278D+00 0.128D+01
 Coeff-En:   0.000D+00 0.000D+00 0.000D+00 0.000D+00 0.000D+00 0.000D+00
 Coeff-En:   0.000D+00 0.000D+00 0.000D+00 0.000D+00 0.000D+00 0.000D+00
 Coeff-En:   0.000D+00 0.100D+01
 Coeff:      0.437D-03 0.197D-02 0.406D-04-0.178D-02 0.801D-04 0.577D-02
 Coeff:      0.154D-02-0.288D-01 0.243D-02 0.186D-01 0.427D-01-0.443D-01
 Coeff:     -0.276D+00 0.128D+01
 Gap=     0.037 Goal=   None    Shift=    0.000
 RMSDP=5.03D-04 MaxDP=3.02D-03 DE=-9.64D-05 OVMax= 1.15D-02

 Cycle  15  Pass 0  IDiag  1:
 E= -39.7931577247043     Delta-E=       -0.000056907483 Rises=F Damp=F
 DIIS: error= 8.92D-04 at cycle  15 NSaved=  15.
 NSaved=15 IEnMin=15 EnMin= -39.7931577247043     IErMin=12 ErrMin= 6.97D-04
 ErrMax= 8.92D-04  0.00D+00 EMaxC= 1.00D-01 BMatC= 1.04D-05 BMatP= 1.06D-05
 IDIUse=3 WtCom= 9.93D-01 WtEn= 6.97D-03
 Coeff-Com:  0.126D-02 0.168D-02 0.150D-03-0.135D-02 0.991D-03 0.476D-02
 Coeff-Com: -0.311D-03-0.327D-01 0.163D-02-0.429D-01 0.112D+00 0.210D+00
 Coeff-Com: -0.427D+00-0.200D+00 0.137D+01
 Coeff-En:   0.000D+00 0.000D+00 0.000D+00 0.000D+00 0.000D+00 0.000D+00
 Coeff-En:   0.000D+00 0.000D+00 0.000D+00 0.000D+00 0.000D+00 0.000D+00
 Coeff-En:   0.000D+00 0.000D+00 0.100D+01
 Coeff:      0.126D-02 0.167D-02 0.149D-03-0.134D-02 0.984D-03 0.473D-02
 Coeff:     -0.309D-03-0.325D-01 0.162D-02-0.426D-01 0.111D+00 0.208D+00
 Coeff:     -0.424D+00-0.198D+00 0.137D+01
 Gap=     0.037 Goal=   None    Shift=    0.000
 RMSDP=3.78D-04 MaxDP=2.15D-03 DE=-5.69D-05 OVMax= 7.38D-03

 Cycle  16  Pass 0  IDiag  1:
 E= -39.7931477594223     Delta-E=        0.000009965282 Rises=F Damp=F
 DIIS: error= 1.20D-03 at cycle  16 NSaved=  16.
 NSaved=16 IEnMin=15 EnMin= -39.7931577247043     IErMin=12 ErrMin= 6.97D-04
 ErrMax= 1.20D-03  0.00D+00 EMaxC= 1.00D-01 BMatC= 1.92D-05 BMatP= 1.04D-05
 IDIUse=3 WtCom= 9.93D-01 WtEn= 6.97D-03
 Rare condition: small coef for last iteration:  0.000D+00
 Coeff-Com:  0.119D-02 0.178D-02 0.154D-03-0.140D-02 0.917D-03 0.497D-02
 Coeff-Com: -0.225D-03-0.327D-01 0.212D-02-0.476D-01 0.107D+00 0.186D+00
 Coeff-Com: -0.492D+00-0.826D-01 0.157D+01-0.220D+00
 Coeff-En:   0.000D+00 0.000D+00 0.000D+00 0.000D+00 0.000D+00 0.000D+00
 Coeff-En:   0.000D+00 0.000D+00 0.000D+00 0.000D+00 0.000D+00 0.000D+00
 Coeff-En:   0.000D+00 0.000D+00 0.000D+00 0.100D+01
 Coeff:      0.119D-02 0.178D-02 0.154D-03-0.140D-02 0.917D-03 0.497D-02
 Coeff:     -0.225D-03-0.327D-01 0.212D-02-0.476D-01 0.107D+00 0.186D+00
 Coeff:     -0.492D+00-0.826D-01 0.157D+01-0.220D+00
 Gap=     0.037 Goal=   None    Shift=    0.000
 RMSDP=1.64D-05 MaxDP=1.47D-04 DE= 9.97D-06 OVMax= 3.45D-04

 Cycle  17  Pass 0  IDiag  1:
 E= -39.7931428922877     Delta-E=        0.000004867135 Rises=F Damp=F
 DIIS: error= 1.26D-03 at cycle  17 NSaved=  17.
 NSaved=17 IEnMin=15 EnMin= -39.7931577247043     IErMin=12 ErrMin= 6.97D-04
 ErrMax= 1.26D-03  0.00D+00 EMaxC= 1.00D-01 BMatC= 2.14D-05 BMatP= 1.04D-05
 IDIUse=3 WtCom= 9.93D-01 WtEn= 6.97D-03
 Large coefficients: NSaved= 17 BigCof=   31.53 CofMax=   10.00 Det=-7.52D-11
 Inversion failed.  Reducing to 16 matrices.
 Large coefficients: NSaved= 16 BigCof=   30.54 CofMax=   10.00 Det=-7.93D-11
 Inversion failed.  Reducing to 15 matrices.
 Large coefficients: NSaved= 15 BigCof=   31.72 CofMax=   10.00 Det=-8.45D-11
 Inversion failed.  Reducing to 14 matrices.
 Large coefficients: NSaved= 14 BigCof=   33.41 CofMax=   10.00 Det=-1.04D-10
 Inversion failed.  Reducing to 13 matrices.
 Large coefficients: NSaved= 13 BigCof=   34.15 CofMax=   10.00 Det=-1.19D-10
 Inversion failed.  Reducing to 12 matrices.
 Large coefficients: NSaved= 12 BigCof=   34.27 CofMax=   10.00 Det=-1.19D-10
 Inversion failed.  Reducing to 11 matrices.
 Large coefficients: NSaved= 11 BigCof=   33.56 CofMax=   10.00 Det=-1.39D-10
 Inversion failed.  Reducing to 10 matrices.
 Large coefficients: NSaved= 10 BigCof=   33.57 CofMax=   10.00 Det=-1.39D-10
 Inversion failed.  Reducing to  9 matrices.
 Large coefficients: NSaved=  9 BigCof=   33.53 CofMax=   10.00 Det=-3.17D-10
 Inversion failed.  Reducing to  8 matrices.
 Large coefficients: NSaved=  8 BigCof=   33.24 CofMax=   10.00 Det=-3.94D-10
 Inversion failed.  Reducing to  7 matrices.
 Large coefficients: NSaved=  7 BigCof=   33.48 CofMax=   10.00 Det=-4.63D-10
 Inversion failed.  Reducing to  6 matrices.
 Large coefficients: NSaved=  6 BigCof=   33.48 CofMax=   10.00 Det=-4.63D-10
 Inversion failed.  Reducing to  5 matrices.
 Large coefficients: NSaved=  5 BigCof=   34.16 CofMax=   10.00 Det=-4.79D-10
 Inversion failed.  Reducing to  4 matrices.
 Large coefficients: NSaved=  4 BigCof=   34.04 CofMax=   10.00 Det=-4.80D-10
 Inversion failed.  Reducing to  3 matrices.
 Large coefficients: NSaved=  3 BigCof=   13.30 CofMax=   10.00 Det=-2.14D-09
 Inversion failed.  Reducing to  2 matrices.
 Large coefficients: NSaved=  2 BigCof=   19.24 CofMax=   10.00 Det=-5.67D-08
 Coeff-Com:  0.192D+02-0.182D+02
 Coeff-En:   0.000D+00 0.100D+01
 Coeff:      0.191D+02-0.181D+02
 Gap=     0.036 Goal=   None    Shift=    0.000
 RMSDP=6.06D-04 MaxDP=5.96D-03 DE= 4.87D-06 OVMax= 1.31D-02

 Cycle  18  Pass 0  IDiag  1:
 E= -39.7931303957433     Delta-E=        0.000012496544 Rises=F Damp=F
 DIIS: error= 1.51D-03 at cycle  18 NSaved=   3.
 NSaved= 3 IEnMin= 1 EnMin= -39.7931477594223     IErMin= 1 ErrMin= 1.20D-03
 ErrMax= 1.51D-03  0.00D+00 EMaxC= 1.00D-01 BMatC= 2.49D-05 BMatP= 1.92D-05
 IDIUse=3 WtCom= 9.93D-01 WtEn= 6.97D-03
 Large coefficients: NSaved=  3 BigCof=   17.75 CofMax=   10.00 Det=-4.02D-08
 Inversion failed.  Reducing to  2 matrices.
 Coeff-Com:  0.543D+00 0.457D+00
 Coeff-En:   0.548D+00 0.452D+00
 Coeff:      0.543D+00 0.457D+00
 Gap=     0.036 Goal=   None    Shift=    0.000
 RMSDP=1.90D-03 MaxDP=1.74D-02 DE= 1.25D-05 OVMax= 4.09D-02

 Problem detected with inexpensive integrals.
 Switching to full accuracy and repeating last cycle.
 Cycle  19  Pass 1  IDiag  1:
 E= -39.7931325098644     Delta-E=       -0.000002114121 Rises=F Damp=F
 DIIS: error= 1.51D-03 at cycle   1 NSaved=   1.
 NSaved= 1 IEnMin= 1 EnMin= -39.7931325098644     IErMin= 1 ErrMin= 1.51D-03
 ErrMax= 1.51D-03  0.00D+00 EMaxC= 1.00D-01 BMatC= 2.49D-05 BMatP= 2.49D-05
 IDIUse=3 WtCom= 9.85D-01 WtEn= 1.51D-02
 Coeff-Com:  0.100D+01
 Coeff-En:   0.100D+01
 Coeff:      0.100D+01
 Gap=     0.039 Goal=   None    Shift=    0.000
 GapD=    0.039 DampG=0.250 DampE=1.000 DampFc=0.2500 IDamp=-1.
 Damping current iteration by 2.50D-01
 RMSDP=3.25D-03 MaxDP=2.54D-02 DE=-2.11D-06 OVMax= 5.91D-02

 Cycle  20  Pass 1  IDiag  1:
 E= -39.7929067651696     Delta-E=        0.000225744695 Rises=F Damp=T
 DIIS: error= 2.97D-03 at cycle   2 NSaved=   2.
 NSaved= 2 IEnMin= 1 EnMin= -39.7931325098644     IErMin= 1 ErrMin= 1.51D-03
 ErrMax= 2.97D-03  0.00D+00 EMaxC= 1.00D-01 BMatC= 7.81D-05 BMatP= 2.49D-05
 IDIUse=3 WtCom= 1.55D-01 WtEn= 8.45D-01
 Coeff-Com:  0.642D+00 0.358D+00
 Coeff-En:   0.786D+00 0.214D+00
 Coeff:      0.763D+00 0.237D+00
 Gap=     0.038 Goal=   None    Shift=    0.000
 RMSDP=8.11D-04 MaxDP=8.41D-03 DE= 2.26D-04 OVMax= 3.44D-02

 Cycle  21  Pass 1  IDiag  1:
 E= -39.7923724779885     Delta-E=        0.000534287181 Rises=F Damp=F
 DIIS: error= 5.13D-03 at cycle   3 NSaved=   3.
 NSaved= 3 IEnMin= 1 EnMin= -39.7931325098644     IErMin= 1 ErrMin= 1.51D-03
 ErrMax= 5.13D-03  0.00D+00 EMaxC= 1.00D-01 BMatC= 2.69D-04 BMatP= 2.49D-05
 IDIUse=3 WtCom= 1.22D-01 WtEn= 8.78D-01
 Coeff-Com:  0.707D+00 0.158D+00 0.135D+00
 Coeff-En:   0.812D+00 0.000D+00 0.188D+00
 Coeff:      0.799D+00 0.194D-01 0.182D+00
 Gap=     0.037 Goal=   None    Shift=    0.000
 RMSDP=9.77D-04 MaxDP=1.11D-02 DE= 5.34D-04 OVMax= 2.39D-02

 Cycle  22  Pass 1  IDiag  1:
 E= -39.7929561764824     Delta-E=       -0.000583698494 Rises=F Damp=F
 DIIS: error= 3.93D-03 at cycle   4 NSaved=   4.
 NSaved= 4 IEnMin= 1 EnMin= -39.7931325098644     IErMin= 1 ErrMin= 1.51D-03
 ErrMax= 3.93D-03  0.00D+00 EMaxC= 1.00D-01 BMatC= 1.46D-04 BMatP= 2.49D-05
 IDIUse=3 WtCom= 1.38D-01 WtEn= 8.62D-01
 EnCoef did     8 forward-backward iterations
 Coeff-Com:  0.782D+00-0.187D+00 0.239D+00 0.167D+00
 Coeff-En:   0.725D+00 0.000D+00 0.100D+00 0.174D+00
 Coeff:      0.733D+00-0.258D-01 0.119D+00 0.173D+00
 Gap=     0.037 Goal=   None    Shift=    0.000
 RMSDP=7.77D-04 MaxDP=6.66D-03 DE=-5.84D-04 OVMax= 1.39D-02

 Cycle  23  Pass 1  IDiag  1:
 E= -39.7929964522414     Delta-E=       -0.000040275759 Rises=F Damp=F
 DIIS: error= 2.80D-03 at cycle   5 NSaved=   5.
 NSaved= 5 IEnMin= 1 EnMin= -39.7931325098644     IErMin= 1 ErrMin= 1.51D-03
 ErrMax= 2.80D-03  0.00D+00 EMaxC= 1.00D-01 BMatC= 7.98D-05 BMatP= 2.49D-05
 IDIUse=3 WtCom= 1.59D-01 WtEn= 8.41D-01
 EnCoef did     3 forward-backward iterations
 Coeff-Com:  0.522D+00-0.860D-01 0.773D-02 0.325D+00 0.231D+00
 Coeff-En:   0.545D+00 0.000D+00 0.000D+00 0.256D+00 0.199D+00
 Coeff:      0.541D+00-0.137D-01 0.123D-02 0.267D+00 0.204D+00
 Gap=     0.037 Goal=   None    Shift=    0.000
 RMSDP=4.95D-04 MaxDP=5.80D-03 DE=-4.03D-05 OVMax= 1.20D-02

 Cycle  24  Pass 1  IDiag  1:
 E= -39.7931972124799     Delta-E=       -0.000200760239 Rises=F Damp=F
 DIIS: error= 4.28D-04 at cycle   6 NSaved=   6.
 NSaved= 6 IEnMin= 6 EnMin= -39.7931972124799     IErMin= 6 ErrMin= 4.28D-04
 ErrMax= 4.28D-04  0.00D+00 EMaxC= 1.00D-01 BMatC= 1.70D-06 BMatP= 2.49D-05
 IDIUse=3 WtCom= 9.96D-01 WtEn= 4.28D-03
 Coeff-Com: -0.417D+00-0.155D-01 0.102D+00-0.704D+00-0.722D+00 0.276D+01
 Coeff-En:   0.168D+00 0.000D+00 0.000D+00 0.000D+00 0.000D+00 0.832D+00
 Coeff:     -0.414D+00-0.155D-01 0.101D+00-0.701D+00-0.719D+00 0.275D+01
 Gap=     0.037 Goal=   None    Shift=    0.000
 RMSDP=1.82D-04 MaxDP=1.08D-03 DE=-2.01D-04 OVMax= 3.21D-03

 Cycle  25  Pass 1  IDiag  1:
 E= -39.7932039976175     Delta-E=       -0.000006785138 Rises=F Damp=F
 DIIS: error= 8.75D-05 at cycle   7 NSaved=   7.
 NSaved= 7 IEnMin= 7 EnMin= -39.7932039976175     IErMin= 7 ErrMin= 8.75D-05
 ErrMax= 8.75D-05  0.00D+00 EMaxC= 1.00D-01 BMatC= 7.02D-08 BMatP= 1.70D-06
 IDIUse=1 WtCom= 1.00D+00 WtEn= 0.00D+00
 Coeff-Com: -0.142D+00-0.217D+00 0.669D-01-0.415D-02-0.535D-01-0.142D+00
 Coeff-Com:  0.149D+01
 Coeff:     -0.142D+00-0.217D+00 0.669D-01-0.415D-02-0.535D-01-0.142D+00
 Coeff:      0.149D+01
 Gap=     0.037 Goal=   None    Shift=    0.000
 RMSDP=1.39D-04 MaxDP=7.80D-04 DE=-6.79D-06 OVMax= 2.50D-03

 Cycle  26  Pass 1  IDiag  1:
 E= -39.7932045690690     Delta-E=       -0.000000571452 Rises=F Damp=F
 DIIS: error= 7.51D-06 at cycle   8 NSaved=   8.
 NSaved= 8 IEnMin= 8 EnMin= -39.7932045690690     IErMin= 8 ErrMin= 7.51D-06
 ErrMax= 7.51D-06  0.00D+00 EMaxC= 1.00D-01 BMatC= 1.01D-09 BMatP= 7.02D-08
 IDIUse=1 WtCom= 1.00D+00 WtEn= 0.00D+00
 Coeff-Com:  0.311D-01-0.373D-01 0.539D-02 0.529D-01 0.351D-01-0.113D+00
 Coeff-Com: -0.479D-01 0.107D+01
 Coeff:      0.311D-01-0.373D-01 0.539D-02 0.529D-01 0.351D-01-0.113D+00
 Coeff:     -0.479D-01 0.107D+01
 Gap=     0.037 Goal=   None    Shift=    0.000
 RMSDP=1.97D-05 MaxDP=1.30D-04 DE=-5.71D-07 OVMax= 4.23D-04

 Cycle  27  Pass 1  IDiag  1:
 E= -39.7932045949661     Delta-E=       -0.000000025897 Rises=F Damp=F
 DIIS: error= 8.37D-06 at cycle   9 NSaved=   9.
 NSaved= 9 IEnMin= 9 EnMin= -39.7932045949661     IErMin= 8 ErrMin= 7.51D-06
 ErrMax= 8.37D-06  0.00D+00 EMaxC= 1.00D-01 BMatC= 1.45D-09 BMatP= 1.01D-09
 IDIUse=1 WtCom= 1.00D+00 WtEn= 0.00D+00
 Coeff-Com:  0.635D-01 0.447D-01-0.193D-01 0.242D-01 0.270D-01 0.842D-01
 Coeff-Com: -0.631D+00 0.286D-01 0.138D+01
 Coeff:      0.635D-01 0.447D-01-0.193D-01 0.242D-01 0.270D-01 0.842D-01
 Coeff:     -0.631D+00 0.286D-01 0.138D+01
 Gap=     0.037 Goal=   None    Shift=    0.000
 RMSDP=2.16D-05 MaxDP=1.27D-04 DE=-2.59D-08 OVMax= 4.72D-04

 Cycle  28  Pass 1  IDiag  1:
 E= -39.7932046202530     Delta-E=       -0.000000025287 Rises=F Damp=F
 DIIS: error= 3.83D-06 at cycle  10 NSaved=  10.
 NSaved=10 IEnMin=10 EnMin= -39.7932046202530     IErMin=10 ErrMin= 3.83D-06
 ErrMax= 3.83D-06  0.00D+00 EMaxC= 1.00D-01 BMatC= 2.22D-10 BMatP= 1.01D-09
 IDIUse=1 WtCom= 1.00D+00 WtEn= 0.00D+00
 Coeff-Com: -0.216D-03 0.883D-02-0.108D-01 0.549D-02 0.568D-02 0.571D-01
 Coeff-Com: -0.120D+00-0.498D+00 0.669D-01 0.149D+01
 Coeff:     -0.216D-03 0.883D-02-0.108D-01 0.549D-02 0.568D-02 0.571D-01
 Coeff:     -0.120D+00-0.498D+00 0.669D-01 0.149D+01
 Gap=     0.037 Goal=   None    Shift=    0.000
 RMSDP=2.33D-05 MaxDP=1.40D-04 DE=-2.53D-08 OVMax= 5.01D-04

 Cycle  29  Pass 1  IDiag  1:
 E= -39.7932046350191     Delta-E=       -0.000000014766 Rises=F Damp=F
 DIIS: error= 3.24D-06 at cycle  11 NSaved=  11.
 NSaved=11 IEnMin=11 EnMin= -39.7932046350191     IErMin=11 ErrMin= 3.24D-06
 ErrMax= 3.24D-06  0.00D+00 EMaxC= 1.00D-01 BMatC= 1.60D-10 BMatP= 2.22D-10
 IDIUse=1 WtCom= 1.00D+00 WtEn= 0.00D+00
 Coeff-Com: -0.118D-01-0.208D-01 0.231D-02 0.136D-01 0.698D-02-0.558D-01
 Coeff-Com:  0.174D+00 0.963D-01-0.562D+00-0.194D+00 0.155D+01
 Coeff:     -0.118D-01-0.208D-01 0.231D-02 0.136D-01 0.698D-02-0.558D-01
 Coeff:      0.174D+00 0.963D-01-0.562D+00-0.194D+00 0.155D+01
 Gap=     0.037 Goal=   None    Shift=    0.000
 RMSDP=1.61D-05 MaxDP=1.00D-04 DE=-1.48D-08 OVMax= 3.32D-04

 Cycle  30  Pass 1  IDiag  1:
 E= -39.7932046389625     Delta-E=       -0.000000003943 Rises=F Damp=F
 DIIS: error= 3.27D-06 at cycle  12 NSaved=  12.
 NSaved=12 IEnMin=12 EnMin= -39.7932046389625     IErMin=11 ErrMin= 3.24D-06
 ErrMax= 3.27D-06  0.00D+00 EMaxC= 1.00D-01 BMatC= 1.24D-10 BMatP= 1.60D-10
 IDIUse=1 WtCom= 1.00D+00 WtEn= 0.00D+00
 Coeff-Com:  0.288D-02 0.358D-02-0.690D-03 0.271D-03-0.672D-04 0.375D-02
 Coeff-Com: -0.294D-01 0.713D-01 0.481D-01-0.184D+00-0.121D+00 0.121D+01
 Coeff:      0.288D-02 0.358D-02-0.690D-03 0.271D-03-0.672D-04 0.375D-02
 Coeff:     -0.294D-01 0.713D-01 0.481D-01-0.184D+00-0.121D+00 0.121D+01
 Gap=     0.037 Goal=   None    Shift=    0.000
 RMSDP=2.94D-06 MaxDP=1.84D-05 DE=-3.94D-09 OVMax= 5.53D-05

 Cycle  31  Pass 1  IDiag  1:
 E= -39.7932046393085     Delta-E=       -0.000000000346 Rises=F Damp=F
 DIIS: error= 3.71D-07 at cycle  13 NSaved=  13.
 NSaved=13 IEnMin=13 EnMin= -39.7932046393085     IErMin=13 ErrMin= 3.71D-07
 ErrMax= 3.71D-07  0.00D+00 EMaxC= 1.00D-01 BMatC= 2.71D-12 BMatP= 1.24D-10
 IDIUse=1 WtCom= 1.00D+00 WtEn= 0.00D+00
 Coeff-Com:  0.476D-03-0.366D-02 0.118D-02 0.921D-03-0.678D-04 0.155D-02
 Coeff-Com:  0.178D-02-0.333D-01 0.277D-01 0.786D-01-0.930D-01-0.542D+00
 Coeff-Com:  0.156D+01
 Coeff:      0.476D-03-0.366D-02 0.118D-02 0.921D-03-0.678D-04 0.155D-02
 Coeff:      0.178D-02-0.333D-01 0.277D-01 0.786D-01-0.930D-01-0.542D+00
 Coeff:      0.156D+01
 Gap=     0.037 Goal=   None    Shift=    0.000
 RMSDP=8.54D-07 MaxDP=4.70D-06 DE=-3.46D-10 OVMax= 1.60D-05

 Cycle  32  Pass 1  IDiag  1:
 E= -39.7932046393346     Delta-E=       -0.000000000026 Rises=F Damp=F
 DIIS: error= 2.37D-07 at cycle  14 NSaved=  14.
 NSaved=14 IEnMin=14 EnMin= -39.7932046393346     IErMin=14 ErrMin= 2.37D-07
 ErrMax= 2.37D-07  0.00D+00 EMaxC= 1.00D-01 BMatC= 7.01D-13 BMatP= 2.71D-12
 IDIUse=1 WtCom= 1.00D+00 WtEn= 0.00D+00
 Coeff-Com: -0.363D-03-0.237D-02 0.638D-03 0.375D-03-0.222D-03 0.694D-03
 Coeff-Com:  0.569D-02-0.308D-01-0.463D-02 0.737D-01 0.733D-02-0.373D+00
 Coeff-Com:  0.438D+00 0.884D+00
 Coeff:     -0.363D-03-0.237D-02 0.638D-03 0.375D-03-0.222D-03 0.694D-03
 Coeff:      0.569D-02-0.308D-01-0.463D-02 0.737D-01 0.733D-02-0.373D+00
 Coeff:      0.438D+00 0.884D+00
 Gap=     0.037 Goal=   None    Shift=    0.000
 RMSDP=1.97D-07 MaxDP=9.74D-07 DE=-2.61D-11 OVMax= 3.55D-06

 Cycle  33  Pass 1  IDiag  1:
 E= -39.7932046393387     Delta-E=       -0.000000000004 Rises=F Damp=F
 DIIS: error= 1.42D-07 at cycle  15 NSaved=  15.
 NSaved=15 IEnMin=15 EnMin= -39.7932046393387     IErMin=15 ErrMin= 1.42D-07
 ErrMax= 1.42D-07  0.00D+00 EMaxC= 1.00D-01 BMatC= 2.69D-13 BMatP= 7.01D-13
 IDIUse=1 WtCom= 1.00D+00 WtEn= 0.00D+00
 Coeff-Com: -0.194D-03-0.417D-04 0.205D-04-0.195D-03-0.226D-03 0.350D-03
 Coeff-Com:  0.117D-02-0.156D-02-0.524D-02 0.691D-02 0.448D-02 0.403D-01
 Coeff-Com: -0.227D+00-0.172D+00 0.135D+01
 Coeff:     -0.194D-03-0.417D-04 0.205D-04-0.195D-03-0.226D-03 0.350D-03
 Coeff:      0.117D-02-0.156D-02-0.524D-02 0.691D-02 0.448D-02 0.403D-01
 Coeff:     -0.227D+00-0.172D+00 0.135D+01
 Gap=     0.037 Goal=   None    Shift=    0.000
 RMSDP=1.42D-07 MaxDP=7.87D-07 DE=-4.04D-12 OVMax= 2.61D-06

 Cycle  34  Pass 1  IDiag  1:
 E= -39.7932046393399     Delta-E=       -0.000000000001 Rises=F Damp=F
 DIIS: error= 4.35D-08 at cycle  16 NSaved=  16.
 NSaved=16 IEnMin=16 EnMin= -39.7932046393399     IErMin=16 ErrMin= 4.35D-08
 ErrMax= 4.35D-08  0.00D+00 EMaxC= 1.00D-01 BMatC= 2.14D-14 BMatP= 2.69D-13
 IDIUse=1 WtCom= 1.00D+00 WtEn= 0.00D+00
 Large coefficients: NSaved= 16 BigCof=    0.00 CofMax=   10.00 Det=-1.16D-15
 Inversion failed.  Reducing to 15 matrices.
 Coeff-Com:  0.293D-04 0.497D-05 0.123D-04 0.546D-05 0.133D-04-0.170D-03
 Coeff-Com:  0.101D-02 0.750D-03-0.292D-02-0.241D-02 0.149D-01-0.206D-02
 Coeff-Com: -0.406D-01-0.123D+00 0.115D+01
 Coeff:      0.293D-04 0.497D-05 0.123D-04 0.546D-05 0.133D-04-0.170D-03
 Coeff:      0.101D-02 0.750D-03-0.292D-02-0.241D-02 0.149D-01-0.206D-02
 Coeff:     -0.406D-01-0.123D+00 0.115D+01
 Gap=     0.037 Goal=   None    Shift=    0.000
 RMSDP=1.94D-08 MaxDP=1.03D-07 DE=-1.24D-12 OVMax= 3.44D-07

 Cycle  35  Pass 1  IDiag  1:
 E= -39.7932046393400     Delta-E=        0.000000000000 Rises=F Damp=F
 DIIS: error= 1.32D-08 at cycle  17 NSaved=  16.
 NSaved=16 IEnMin=16 EnMin= -39.7932046393400     IErMin=16 ErrMin= 1.32D-08
 ErrMax= 1.32D-08  0.00D+00 EMaxC= 1.00D-01 BMatC= 1.99D-15 BMatP= 2.14D-14
 IDIUse=1 WtCom= 1.00D+00 WtEn= 0.00D+00
 Large coefficients: NSaved= 16 BigCof=    0.00 CofMax=   10.00 Det=-1.04D-16
 Inversion failed.  Reducing to 15 matrices.
 Coeff-Com:  0.527D-05 0.226D-05 0.491D-05 0.871D-05-0.656D-04 0.112D-03
 Coeff-Com:  0.425D-03-0.787D-03-0.280D-03 0.794D-03 0.798D-02 0.104D-01
 Coeff-Com: -0.798D-01 0.781D-01 0.983D+00
 Coeff:      0.527D-05 0.226D-05 0.491D-05 0.871D-05-0.656D-04 0.112D-03
 Coeff:      0.425D-03-0.787D-03-0.280D-03 0.794D-03 0.798D-02 0.104D-01
 Coeff:     -0.798D-01 0.781D-01 0.983D+00
 Gap=     0.037 Goal=   None    Shift=    0.000
 RMSDP=2.55D-09 MaxDP=1.92D-08 DE=-1.07D-13 OVMax= 4.86D-08

 SCF Done:  E(RB3LYP) =  -39.7932046393     A.U. after   35 cycles
            NFock= 35  Conv=0.25D-08     -V/T= 2.0184
 KE= 3.907232162118D+01 PE=-1.034609803635D+02 EE= 1.854204493650D+01
 Leave Link  502 at Thu Mar 19 16:56:57 2026, MaxMem=   536870912 cpu:         3.0
 (Enter C:\G09W\l601.exe)
 Copying SCF densities to generalized density rwf, IOpCl= 0 IROHF=0.

 **********************************************************************

            Population analysis using the SCF density.

 **********************************************************************

 Orbital symmetries:
       Occupied  (A) (A) (A) (A) (A)
       Virtual   (A) (A) (A) (A) (A) (A) (A) (A) (A) (A) (A) (A)
                 (A) (A) (A) (A) (A) (A)
 The electronic state is 1-A.
 Alpha  occ. eigenvalues --  -10.39358  -0.59948  -0.35091  -0.24417  -0.23850
 Alpha virt. eigenvalues --   -0.20182  -0.18286  -0.17631  -0.02723   0.49411
 Alpha virt. eigenvalues --    0.49742   0.51892   0.63775   0.75688   0.77867
 Alpha virt. eigenvalues --    0.83535   0.94421   1.62299   1.62665   1.62975
 Alpha virt. eigenvalues --    1.63093   1.66673   3.74878
          Condensed to atoms (all electrons):
               1          2          3          4          5
     1  C    5.745019   0.122542   0.028806   0.021364   0.016233
     2  H    0.122542   0.682533   0.016917   0.055461   0.068009
     3  H    0.028806   0.016917   1.008979  -0.004446  -0.005675
     4  H    0.021364   0.055461  -0.004446   0.978884  -0.009854
     5  H    0.016233   0.068009  -0.005675  -0.009854   0.965872
 Mulliken charges:
               1
     1  C    0.066036
     2  H    0.054539
     3  H   -0.044581
     4  H   -0.041409
     5  H   -0.034585
 Sum of Mulliken charges =   0.00000
 Mulliken charges with hydrogens summed into heavy atoms:
               1
     1  C    0.000000
 Electronic spatial extent (au):  <R**2>=            116.6292
 Charge=              0.0000 electrons
 Dipole moment (field-independent basis, Debye):
    X=              0.8119    Y=             -0.1758    Z=             -0.0713  Tot=              0.8337
 Quadrupole moment (field-independent basis, Debye-Ang):
   XX=            -11.4795   YY=            -11.9496   ZZ=            -12.4231
   XY=              0.4631   XZ=              0.0867   YZ=              0.1311
 Traceless Quadrupole moment (field-independent basis, Debye-Ang):
   XX=              0.4712   YY=              0.0011   ZZ=             -0.4724
   XY=              0.4631   XZ=              0.0867   YZ=              0.1311
 Octapole moment (field-independent basis, Debye-Ang**2):
  XXX=              7.1571  YYY=             -2.5281  ZZZ=             -0.2604  XYY=              3.4811
  XXY=              0.2767  XXZ=             -0.1750  XZZ=              2.0328  YZZ=             -0.0493
  YYZ=             -0.1735  XYZ=              0.0135
 Hexadecapole moment (field-independent basis, Debye-Ang**3):
 XXXX=           -112.0234 YYYY=            -79.9104 ZZZZ=            -46.0975 XXXY=              1.5175
 XXXZ=              0.4477 YYYX=              1.1982 YYYZ=              0.1224 ZZZX=              0.2884
 ZZZY=              0.2515 XXYY=            -31.5704 XXZZ=            -26.6162 YYZZ=            -20.4999
 XXYZ=              0.2492 YYXZ=              0.1271 ZZXY=              0.1468
 N-N= 6.053409166475D+00 E-N=-1.034609806229D+02  KE= 3.907232162118D+01
 No NMR shielding tensors so no spin-rotation constants.
 Leave Link  601 at Thu Mar 19 16:56:58 2026, MaxMem=   536870912 cpu:         1.0
 (Enter C:\G09W\l701.exe)
 Compute integral first derivatives.
 ... and contract with generalized density number  0.
 Leave Link  701 at Thu Mar 19 16:56:58 2026, MaxMem=   536870912 cpu:         0.0
 (Enter C:\G09W\l702.exe)
 L702 exits ... SP integral derivatives will be done elsewhere.
 Leave Link  702 at Thu Mar 19 16:56:58 2026, MaxMem=   536870912 cpu:         0.0
 (Enter C:\G09W\l703.exe)
 Compute integral first derivatives, UseDBF=F ICtDFT=           0.
 Integral derivatives from FoFJK, PRISM(SPDF).
 Calling FoFJK, ICntrl=      2127 FMM=F ISym2X=0 I1Cent= 0 IOpClX= 0 NMat=1 NMatS=1 NMatT=0.
 FoFJK:  IHMeth= 1 ICntrl=    2127 DoSepK=F KAlg= 0 I1Cent=   0 FoldK=F
 IRaf=         0 NMat=   1 IRICut=       1 DoRegI=T DoRafI=F ISym2E= 0.
 FoFCou: FMM=F IPFlag=           0 FMFlag=      100000 FMFlg1=         800
         NFxFlg=           0 DoJE=F BraDBF=F KetDBF=F FulRan=T
         wScrn=  0.000000 ICntrl=    2127 IOpCl=  0 I1Cent=           0 NGrid=           0
         NMat0=    1 NMatS0=      1 NMatT0=    0 NMatD0=    1 NMtDS0=    0 NMtDT0=    0
 Symmetry not used in FoFCou.
 Leave Link  703 at Thu Mar 19 16:56:58 2026, MaxMem=   536870912 cpu:         0.0
 (Enter C:\G09W\l716.exe)
 Dipole        = 3.19418233D-01-6.91497282D-02-2.80673630D-02
 ***** Axes restored to original set *****
 -------------------------------------------------------------------
 Center     Atomic                   Forces (Hartrees/Bohr)
 Number     Number              X              Y              Z
 -------------------------------------------------------------------
      1        6           0.014290159   -0.039132887   -0.058421988
      2        1          -0.005958948    0.003256400    0.017059834
      3        1          -0.009114118   -0.001670809    0.013958554
      4        1           0.010715910    0.013408239    0.019406334
      5        1          -0.009933003    0.024139057    0.007997266
 -------------------------------------------------------------------
 Cartesian Forces:  Max     0.058421988 RMS     0.021883180
 Leave Link  716 at Thu Mar 19 16:56:58 2026, MaxMem=   536870912 cpu:         0.0
 (Enter C:\G09W\l103.exe)

 GradGradGradGradGradGradGradGradGradGradGradGradGradGradGradGradGradGrad
 Berny optimization.
 FormGI is forming the generalized inverse of G from B-inverse, IUseBI=4.
 Internal  Forces:  Max     0.071674635 RMS     0.027279860
 Search for a local minimum.
 Step number   1 out of a maximum of   21
 All quantities printed in internal units (Hartrees-Bohrs-Radians)
 RMS Force = .27280D-01 SwitMx=.10000D-02 MixMth= 1
 Mixed Optimization -- RFO/linear search
 Second derivative matrix not updated -- first step.
 The second derivative matrix:
                          R1        R2        R3        R4        A1
           R1           0.07117
           R2           0.00000   0.01349
           R3           0.00000   0.00000   0.02910
           R4           0.00000   0.00000   0.00000   0.03153
           A1           0.00000   0.00000   0.00000   0.00000   0.16000
           A2           0.00000   0.00000   0.00000   0.00000   0.00000
           A3           0.00000   0.00000   0.00000   0.00000   0.00000
           A4           0.00000   0.00000   0.00000   0.00000   0.00000
           A5           0.00000   0.00000   0.00000   0.00000   0.00000
           A6           0.00000   0.00000   0.00000   0.00000   0.00000
           D1           0.00000   0.00000   0.00000   0.00000   0.00000
                          A2        A3        A4        A5        A6
           A2           0.16000
           A3           0.00000   0.16000
           A4           0.00000   0.00000   0.16000
           A5           0.00000   0.00000   0.00000   0.16000
           A6           0.00000   0.00000   0.00000   0.00000   0.16000
           D1           0.00000   0.00000   0.00000   0.00000   0.00000
                          D1
           D1           0.00230
 ITU=  0
     Eigenvalues ---    0.01349   0.02910   0.03153   0.07117   0.08008
     Eigenvalues ---    0.16000   0.16000   0.16000   0.16000
 RFO step:  Lambda=-6.25638019D-02 EMin= 1.34884142D-02
 Linear search not attempted -- first point.
 Maximum step size (   0.300) exceeded in Quadratic search.
    -- Step size scaled by   0.427
 Iteration  1 RMS(Cart)=  0.09680998 RMS(Int)=  0.00891174
 Iteration  2 RMS(Cart)=  0.00754822 RMS(Int)=  0.00070792
 Iteration  3 RMS(Cart)=  0.00000455 RMS(Int)=  0.00070791
 Iteration  4 RMS(Cart)=  0.00000000 RMS(Int)=  0.00070791
 ITry= 1 IFail=0 DXMaxC= 2.32D-01 DCOld= 1.00D+10 DXMaxT= 3.00D-01 DXLimC= 3.00D+00 Rises=F
 Variable       Old X    -DE/DX   Delta X   Delta X   Delta X     New X
                                 (Linear)    (Quad)   (Total)
    R1        3.25097  -0.07167   0.00000  -0.22870  -0.22870   3.02227
    R2        4.80295  -0.01365   0.00000  -0.07661  -0.07661   4.72635
    R3        3.66192  -0.02347   0.00000  -0.10925  -0.10925   3.55267
    R4        3.55870  -0.02550   0.00000  -0.11564  -0.11564   3.44306
    A1        1.73558  -0.01913   0.00000  -0.04155  -0.04150   1.69408
    A2        2.07807  -0.01306   0.00000  -0.02964  -0.02958   2.04848
    A3        2.16579  -0.00632   0.00000  -0.01688  -0.01682   2.14897
    A4        1.92632   0.00255   0.00000   0.01978   0.01816   1.94448
    A5        1.93181   0.01955   0.00000   0.03730   0.03688   1.96870
    A6        1.62984   0.02077   0.00000   0.04267   0.04196   1.67180
    D1       -1.97690  -0.01628   0.00000  -0.04869  -0.05017  -2.02707
         Item               Value     Threshold  Converged?
 Maximum Force            0.071675     0.000450     NO 
 RMS     Force            0.027280     0.000300     NO 
 Maximum Displacement     0.232076     0.001800     NO 
 RMS     Displacement     0.103257     0.001200     NO 
 Predicted change in Energy=-2.389803D-02
 Lowest energy point so far.  Saving SCF results.
 GradGradGradGradGradGradGradGradGradGradGradGradGradGradGradGradGradGrad

 Leave Link  103 at Thu Mar 19 16:56:59 2026, MaxMem=   536870912 cpu:         0.0
 (Enter C:\G09W\l202.exe)
                          Input orientation:                          
 ---------------------------------------------------------------------
 Center     Atomic      Atomic             Coordinates (Angstroms)
 Number     Number       Type             X           Y           Z
 ---------------------------------------------------------------------
      1          6           0       -0.398071    0.887037    1.420982
      2          1           0       -0.086342   -0.067744    0.176381
      3          1           0        1.357970    1.536050   -1.087417
      4          1           0       -1.546199   -0.640409   -0.860555
      5          1           0        0.672642   -1.714933    0.350609
 ---------------------------------------------------------------------
                    Distance matrix (angstroms):
                    1          2          3          4          5
     1  C    0.000000
     2  H    1.599316   0.000000
     3  H    3.130010   2.501075   0.000000
     4  H    2.976021   1.879991   3.636295   0.000000
     5  H    3.010377   1.821989   3.620287   2.746776   0.000000
 Stoichiometry    CH4
 Framework group  C1[X(CH4)]
 Deg. of freedom     9
 Full point group                 C1      NOp   1
 RotChk:  IX=0 Diff= 6.59D-02
 Largest Abelian subgroup         C1      NOp   1
 Largest concise Abelian subgroup C1      NOp   1
                         Standard orientation:                         
 ---------------------------------------------------------------------
 Center     Atomic      Atomic             Coordinates (Angstroms)
 Number     Number       Type             X           Y           Z
 ---------------------------------------------------------------------
      1          6           0        0.853690   -0.110815   -0.007360
      2          1           0       -0.744631   -0.061084   -0.034009
      3          1           0       -0.976191    2.428106    0.041415
      4          1           0       -1.658652   -0.878846    1.390841
      5          1           0       -1.742668   -0.823288   -1.354087
 ---------------------------------------------------------------------
 Rotational constants (GHZ):     44.6834195     27.6076224     22.9568536
 Leave Link  202 at Thu Mar 19 16:56:59 2026, MaxMem=   536870912 cpu:         0.0
 (Enter C:\G09W\l301.exe)
 Standard basis: 6-31G(d) (6D, 7F)
 Ernie: Thresh=  0.10000D-02 Tol=  0.10000D-05 Strict=F.
 There are    23 symmetry adapted cartesian basis functions of A   symmetry.
 There are    23 symmetry adapted basis functions of A   symmetry.
    23 basis functions,    44 primitive gaussians,    23 cartesian basis functions
     5 alpha electrons        5 beta electrons
       nuclear repulsion energy         6.3890930792 Hartrees.
 IExCor=  402 DFT=T Ex+Corr=B3LYP ExCW=0 ScaHFX=  0.200000
 ScaDFX=  0.800000  0.720000  1.000000  0.810000 ScalE2=  1.000000  1.000000
 IRadAn=      0 IRanWt=     -1 IRanGd=            0 ICorTp=0 IEmpDi=  4
 NAtoms=    5 NActive=    5 NUniq=    5 SFac= 1.00D+00 NAtFMM=   60 NAOKFM=F Big=F
 Integral buffers will be    131072 words long.
 Raffenetti 2 integral format.
 Two-electron integral symmetry is turned on.
 Leave Link  301 at Thu Mar 19 16:56:59 2026, MaxMem=   536870912 cpu:         0.0
 (Enter C:\G09W\l302.exe)
 NPDir=0 NMtPBC=     1 NCelOv=     1 NCel=       1 NClECP=     1 NCelD=      1
         NCelK=      1 NCelE2=     1 NClLst=     1 CellRange=     0.0.
 One-electron integrals computed using PRISM.
 NBasis=    23 RedAO= T EigKep=  4.72D-02  NBF=    23
 NBsUse=    23 1.00D-06 EigRej= -1.00D+00 NBFU=    23
 Precomputing XC quadrature grid using
 IXCGrd= 4 IRadAn=           0 IRanWt=          -1 IRanGd=           0 AccXCQ= 0.00D+00.
 Generated NRdTot=       0 NPtTot=           0 NUsed=           0 NTot=          32
 NSgBfM=    23    23    23    23    23 MxSgAt=     5 MxSgA2=     5.
 Leave Link  302 at Thu Mar 19 16:57:00 2026, MaxMem=   536870912 cpu:         1.0
 (Enter C:\G09W\l303.exe)
 DipDrv:  MaxL=1.
 Leave Link  303 at Thu Mar 19 16:57:00 2026, MaxMem=   536870912 cpu:         0.0
 (Enter C:\G09W\l401.exe)
 Initial guess from the checkpoint file:  "methane_xtb.chk"
 B after Tr=     0.000000    0.000000    0.000000
         Rot=    0.999745    0.004630   -0.001563    0.022027 Ang=   2.59 deg.
 Guess basis will be translated and rotated to current coordinates.
 JPrj=2 DoOrth=T DoCkMO=T.
 Generating alternative initial guess.
 ExpMin= 1.61D-01 ExpMax= 3.05D+03 ExpMxC= 4.57D+02 IAcc=1 IRadAn=         1 AccDes= 0.00D+00
 Harris functional with IExCor=  402 and IRadAn=       1 diagonalized for initial guess.
 HarFok:  IExCor=  402 AccDes= 0.00D+00 IRadAn=         1 IDoV= 1 UseB2=F ITyADJ=14
 ICtDFT=  3500011 ScaDFX=  1.000000  1.000000  1.000000  1.000000
 FoFCou: FMM=F IPFlag=           0 FMFlag=      100000 FMFlg1=           0
         NFxFlg=           0 DoJE=T BraDBF=F KetDBF=T FulRan=T
         wScrn=  0.000000 ICntrl=     500 IOpCl=  0 I1Cent=   200000004 NGrid=           0
         NMat0=    1 NMatS0=      1 NMatT0=    0 NMatD0=    1 NMtDS0=    0 NMtDT0=    0
 Petite list used in FoFCou.
 Harris En= -39.8717446727746    
 Leave Link  401 at Thu Mar 19 16:57:00 2026, MaxMem=   536870912 cpu:         0.0
 (Enter C:\G09W\l502.exe)
 Closed shell SCF:
 Using DIIS extrapolation, IDIIS=  1040.
 Integral symmetry usage will be decided dynamically.
 Keep R1 ints in memory in canonical form, NReq=918238.
 IVT=       20458 IEndB=       20458 NGot=   536870912 MDV=   536812229
 LenX=   536812229 LenY=   536811259
 Requested convergence on RMS density matrix=1.00D-08 within 128 cycles.
 Requested convergence on MAX density matrix=1.00D-06.
 Requested convergence on             energy=1.00D-06.
 No special actions if energy rises.
 FoFCou: FMM=F IPFlag=           0 FMFlag=           0 FMFlg1=           0
         NFxFlg=           0 DoJE=F BraDBF=F KetDBF=F FulRan=T
         wScrn=  0.000000 ICntrl=     600 IOpCl=  0 I1Cent=           0 NGrid=           0
         NMat0=    1 NMatS0=    276 NMatT0=    0 NMatD0=    1 NMtDS0=    0 NMtDT0=    0
 Symmetry not used in FoFCou.
 Integral accuracy reduced to 1.0D-05 until final iterations.

 Cycle   1  Pass 0  IDiag  1:
 E= -39.8201032875112    
 DIIS: error= 5.08D-03 at cycle   1 NSaved=   1.
 NSaved= 1 IEnMin= 1 EnMin= -39.8201032875112     IErMin= 1 ErrMin= 5.08D-03
 ErrMax= 5.08D-03  0.00D+00 EMaxC= 1.00D-01 BMatC= 4.36D-04 BMatP= 4.36D-04
 IDIUse=3 WtCom= 9.49D-01 WtEn= 5.08D-02
 Coeff-Com:  0.100D+01
 Coeff-En:   0.100D+01
 Coeff:      0.100D+01
 Gap=     2.570 Goal=   None    Shift=    0.000
 GapD=    2.570 DampG=2.000 DampE=1.000 DampFc=2.0000 IDamp=-1.
 RMSDP=2.01D-03 MaxDP=1.27D-02              OVMax= 2.96D-02

 Cycle   2  Pass 0  IDiag  1:
 E= -39.8207816781330     Delta-E=       -0.000678390622 Rises=F Damp=F
 DIIS: error= 4.58D-03 at cycle   2 NSaved=   2.
 NSaved= 2 IEnMin= 2 EnMin= -39.8207816781330     IErMin= 2 ErrMin= 4.58D-03
 ErrMax= 4.58D-03  0.00D+00 EMaxC= 1.00D-01 BMatC= 3.12D-04 BMatP= 4.36D-04
 IDIUse=3 WtCom= 9.54D-01 WtEn= 4.58D-02
 Coeff-Com:  0.427D+00 0.573D+00
 Coeff-En:   0.000D+00 0.100D+01
 Coeff:      0.408D+00 0.592D+00
 Gap=     0.039 Goal=   None    Shift=    0.000
 RMSDP=5.31D-03 MaxDP=4.66D-02 DE=-6.78D-04 OVMax= 9.72D-02

 Cycle   3  Pass 0  IDiag  1:
 E= -39.8035026631388     Delta-E=        0.017279014994 Rises=F Damp=F
 DIIS: error= 2.49D-02 at cycle   3 NSaved=   3.
 NSaved= 3 IEnMin= 2 EnMin= -39.8207816781330     IErMin= 2 ErrMin= 4.58D-03
 ErrMax= 2.49D-02  0.00D+00 EMaxC= 1.00D-01 BMatC= 1.01D-02 BMatP= 3.12D-04
 IDIUse=2 WtCom= 0.00D+00 WtEn= 1.00D+00
 Coeff-En:   0.000D+00 0.881D+00 0.119D+00
 Coeff:      0.000D+00 0.881D+00 0.119D+00
 Gap=     0.040 Goal=   None    Shift=    0.000
 RMSDP=2.61D-03 MaxDP=1.85D-02 DE= 1.73D-02 OVMax= 4.41D-02

 Cycle   4  Pass 0  IDiag  1:
 E= -39.8188654380188     Delta-E=       -0.015362774880 Rises=F Damp=F
 DIIS: error= 8.81D-03 at cycle   4 NSaved=   4.
 NSaved= 4 IEnMin= 2 EnMin= -39.8207816781330     IErMin= 2 ErrMin= 4.58D-03
 ErrMax= 8.81D-03  0.00D+00 EMaxC= 1.00D-01 BMatC= 1.37D-03 BMatP= 3.12D-04
 IDIUse=3 WtCom= 9.63D-02 WtEn= 9.04D-01
 Coeff-Com: -0.107D-01 0.724D+00 0.340D-01 0.252D+00
 Coeff-En:   0.000D+00 0.689D+00 0.000D+00 0.311D+00
 Coeff:     -0.103D-02 0.692D+00 0.328D-02 0.305D+00
 Gap=     0.042 Goal=   None    Shift=    0.000
 RMSDP=1.99D-03 MaxDP=2.34D-02 DE=-1.54D-02 OVMax= 4.93D-02

 Cycle   5  Pass 0  IDiag  1:
 E= -39.8211500943655     Delta-E=       -0.002284656347 Rises=F Damp=F
 DIIS: error= 4.21D-03 at cycle   5 NSaved=   5.
 NSaved= 5 IEnMin= 5 EnMin= -39.8211500943655     IErMin= 5 ErrMin= 4.21D-03
 ErrMax= 4.21D-03  0.00D+00 EMaxC= 1.00D-01 BMatC= 1.92D-04 BMatP= 3.12D-04
 IDIUse=3 WtCom= 9.58D-01 WtEn= 4.21D-02
 EnCoef did     5 forward-backward iterations
 Coeff-Com: -0.245D-01 0.376D+00-0.133D+00 0.460D+00 0.322D+00
 Coeff-En:   0.000D+00 0.460D+00 0.000D+00 0.161D+00 0.378D+00
 Coeff:     -0.235D-01 0.380D+00-0.128D+00 0.447D+00 0.324D+00
 Gap=     0.041 Goal=   None    Shift=    0.000
 RMSDP=9.12D-04 MaxDP=7.44D-03 DE=-2.28D-03 OVMax= 2.04D-02

 Cycle   6  Pass 0  IDiag  1:
 E= -39.8214796584993     Delta-E=       -0.000329564134 Rises=F Damp=F
 DIIS: error= 1.48D-03 at cycle   6 NSaved=   6.
 NSaved= 6 IEnMin= 6 EnMin= -39.8214796584993     IErMin= 6 ErrMin= 1.48D-03
 ErrMax= 1.48D-03  0.00D+00 EMaxC= 1.00D-01 BMatC= 3.60D-05 BMatP= 1.92D-04
 IDIUse=3 WtCom= 9.85D-01 WtEn= 1.48D-02
 EnCoef did     2 forward-backward iterations
 Coeff-Com: -0.196D-01 0.195D+00-0.125D+00 0.310D+00 0.280D+00 0.361D+00
 Coeff-En:   0.000D+00 0.507D-01 0.000D+00 0.000D+00 0.358D-01 0.913D+00
 Coeff:     -0.193D-01 0.193D+00-0.123D+00 0.305D+00 0.276D+00 0.369D+00
 Gap=     0.042 Goal=   None    Shift=    0.000
 RMSDP=5.13D-04 MaxDP=4.39D-03 DE=-3.30D-04 OVMax= 1.09D-02

 Cycle   7  Pass 0  IDiag  1:
 E= -39.8215302773472     Delta-E=       -0.000050618848 Rises=F Damp=F
 DIIS: error= 1.31D-03 at cycle   7 NSaved=   7.
 NSaved= 7 IEnMin= 7 EnMin= -39.8215302773472     IErMin= 7 ErrMin= 1.31D-03
 ErrMax= 1.31D-03  0.00D+00 EMaxC= 1.00D-01 BMatC= 2.68D-05 BMatP= 3.60D-05
 IDIUse=3 WtCom= 9.87D-01 WtEn= 1.31D-02
 Coeff-Com:  0.180D-01-0.192D+00 0.598D-01-0.429D+00-0.277D+00 0.576D+00
 Coeff-Com:  0.124D+01
 Coeff-En:   0.000D+00 0.000D+00 0.000D+00 0.000D+00 0.000D+00 0.627D-01
 Coeff-En:   0.937D+00
 Coeff:      0.177D-01-0.189D+00 0.590D-01-0.423D+00-0.273D+00 0.570D+00
 Coeff:      0.124D+01
 Gap=     0.042 Goal=   None    Shift=    0.000
 RMSDP=7.44D-04 MaxDP=5.07D-03 DE=-5.06D-05 OVMax= 1.71D-02

 Cycle   8  Pass 0  IDiag  1:
 E= -39.8216084906715     Delta-E=       -0.000078213324 Rises=F Damp=F
 DIIS: error= 3.07D-04 at cycle   8 NSaved=   8.
 NSaved= 8 IEnMin= 8 EnMin= -39.8216084906715     IErMin= 8 ErrMin= 3.07D-04
 ErrMax= 3.07D-04  0.00D+00 EMaxC= 1.00D-01 BMatC= 9.40D-07 BMatP= 2.68D-05
 IDIUse=3 WtCom= 9.97D-01 WtEn= 3.07D-03
 Coeff-Com:  0.343D-02-0.532D-01 0.495D-01-0.150D+00-0.916D-01 0.420D-01
 Coeff-Com:  0.231D+00 0.969D+00
 Coeff-En:   0.000D+00 0.000D+00 0.000D+00 0.000D+00 0.000D+00 0.000D+00
 Coeff-En:   0.000D+00 0.100D+01
 Coeff:      0.342D-02-0.531D-01 0.493D-01-0.150D+00-0.913D-01 0.419D-01
 Coeff:      0.230D+00 0.969D+00
 Gap=     0.042 Goal=   None    Shift=    0.000
 RMSDP=2.67D-04 MaxDP=1.70D-03 DE=-7.82D-05 OVMax= 6.12D-03

 Cycle   9  Pass 0  IDiag  1:
 E= -39.8216103179739     Delta-E=       -0.000001827302 Rises=F Damp=F
 DIIS: error= 5.36D-04 at cycle   9 NSaved=   9.
 NSaved= 9 IEnMin= 9 EnMin= -39.8216103179739     IErMin= 8 ErrMin= 3.07D-04
 ErrMax= 5.36D-04  0.00D+00 EMaxC= 1.00D-01 BMatC= 3.12D-06 BMatP= 9.40D-07
 IDIUse=3 WtCom= 9.97D-01 WtEn= 3.07D-03
 Coeff-Com: -0.830D-03 0.259D-03 0.990D-02 0.344D-01 0.741D-01-0.667D-01
 Coeff-Com: -0.128D+00-0.224D+00 0.130D+01
 Coeff-En:   0.000D+00 0.000D+00 0.000D+00 0.000D+00 0.000D+00 0.000D+00
 Coeff-En:   0.000D+00 0.000D+00 0.100D+01
 Coeff:     -0.827D-03 0.258D-03 0.987D-02 0.343D-01 0.739D-01-0.665D-01
 Coeff:     -0.127D+00-0.224D+00 0.130D+01
 Gap=     0.042 Goal=   None    Shift=    0.000
 RMSDP=1.59D-04 MaxDP=1.08D-03 DE=-1.83D-06 OVMax= 2.87D-03

 Cycle  10  Pass 0  IDiag  1:
 E= -39.8216165620424     Delta-E=       -0.000006244069 Rises=F Damp=F
 DIIS: error= 1.12D-04 at cycle  10 NSaved=  10.
 NSaved=10 IEnMin=10 EnMin= -39.8216165620424     IErMin=10 ErrMin= 1.12D-04
 ErrMax= 1.12D-04  0.00D+00 EMaxC= 1.00D-01 BMatC= 1.16D-07 BMatP= 9.40D-07
 IDIUse=3 WtCom= 9.99D-01 WtEn= 1.12D-03
 Coeff-Com: -0.476D-03 0.422D-02-0.387D-02 0.257D-01 0.264D-01-0.294D-01
 Coeff-Com: -0.779D-01-0.201D+00-0.127D-01 0.127D+01
 Coeff-En:   0.000D+00 0.000D+00 0.000D+00 0.000D+00 0.000D+00 0.000D+00
 Coeff-En:   0.000D+00 0.000D+00 0.000D+00 0.100D+01
 Coeff:     -0.476D-03 0.422D-02-0.387D-02 0.257D-01 0.263D-01-0.294D-01
 Coeff:     -0.779D-01-0.201D+00-0.127D-01 0.127D+01
 Gap=     0.042 Goal=   None    Shift=    0.000
 RMSDP=1.28D-04 MaxDP=8.15D-04 DE=-6.24D-06 OVMax= 2.63D-03

 Cycle  11  Pass 0  IDiag  1:
 E= -39.8216171791435     Delta-E=       -0.000000617101 Rises=F Damp=F
 DIIS: error= 5.84D-06 at cycle  11 NSaved=  11.
 NSaved=11 IEnMin=11 EnMin= -39.8216171791435     IErMin=11 ErrMin= 5.84D-06
 ErrMax= 5.84D-06  0.00D+00 EMaxC= 1.00D-01 BMatC= 7.04D-10 BMatP= 1.16D-07
 IDIUse=1 WtCom= 1.00D+00 WtEn= 0.00D+00
 Coeff-Com: -0.235D-04 0.218D-03-0.368D-03 0.232D-02 0.934D-03-0.402D-03
 Coeff-Com: -0.128D-01-0.145D-01-0.219D-01 0.148D+00 0.898D+00
 Coeff:     -0.235D-04 0.218D-03-0.368D-03 0.232D-02 0.934D-03-0.402D-03
 Coeff:     -0.128D-01-0.145D-01-0.219D-01 0.148D+00 0.898D+00
 Gap=     0.042 Goal=   None    Shift=    0.000
 RMSDP=8.10D-06 MaxDP=4.82D-05 DE=-6.17D-07 OVMax= 1.74D-04

 Initial convergence to 1.0D-05 achieved.  Increase integral accuracy.
 Cycle  12  Pass 1  IDiag  1:
 E= -39.8216246296946     Delta-E=       -0.000007450551 Rises=F Damp=F
 DIIS: error= 4.31D-06 at cycle   1 NSaved=   1.
 NSaved= 1 IEnMin= 1 EnMin= -39.8216246296946     IErMin= 1 ErrMin= 4.31D-06
 ErrMax= 4.31D-06  0.00D+00 EMaxC= 1.00D-01 BMatC= 5.14D-10 BMatP= 5.14D-10
 IDIUse=1 WtCom= 1.00D+00 WtEn= 0.00D+00
 Coeff-Com:  0.100D+01
 Coeff:      0.100D+01
 Gap=     0.042 Goal=   None    Shift=    0.000
 RMSDP=8.10D-06 MaxDP=4.82D-05 DE=-7.45D-06 OVMax= 8.48D-05

 Cycle  13  Pass 1  IDiag  1:
 E= -39.8216246289166     Delta-E=        0.000000000778 Rises=F Damp=F
 DIIS: error= 8.38D-06 at cycle   2 NSaved=   2.
 NSaved= 2 IEnMin= 1 EnMin= -39.8216246296946     IErMin= 1 ErrMin= 4.31D-06
 ErrMax= 8.38D-06  0.00D+00 EMaxC= 1.00D-01 BMatC= 7.54D-10 BMatP= 5.14D-10
 IDIUse=1 WtCom= 1.00D+00 WtEn= 0.00D+00
 Coeff-Com:  0.575D+00 0.425D+00
 Coeff:      0.575D+00 0.425D+00
 Gap=     0.042 Goal=   None    Shift=    0.000
 RMSDP=7.09D-06 MaxDP=5.62D-05 DE= 7.78D-10 OVMax= 1.64D-04

 Cycle  14  Pass 1  IDiag  1:
 E= -39.8216246278076     Delta-E=        0.000000001109 Rises=F Damp=F
 DIIS: error= 8.23D-06 at cycle   3 NSaved=   3.
 NSaved= 3 IEnMin= 1 EnMin= -39.8216246296946     IErMin= 1 ErrMin= 4.31D-06
 ErrMax= 8.23D-06  0.00D+00 EMaxC= 1.00D-01 BMatC= 1.26D-09 BMatP= 5.14D-10
 IDIUse=1 WtCom= 1.00D+00 WtEn= 0.00D+00
 Coeff-Com:  0.392D-01 0.548D+00 0.413D+00
 Coeff:      0.392D-01 0.548D+00 0.413D+00
 Gap=     0.042 Goal=   None    Shift=    0.000
 RMSDP=4.13D-06 MaxDP=3.35D-05 DE= 1.11D-09 OVMax= 8.37D-05

 Cycle  15  Pass 1  IDiag  1:
 E= -39.8216246289554     Delta-E=       -0.000000001148 Rises=F Damp=F
 DIIS: error= 1.13D-05 at cycle   4 NSaved=   4.
 NSaved= 4 IEnMin= 1 EnMin= -39.8216246296946     IErMin= 1 ErrMin= 4.31D-06
 ErrMax= 1.13D-05  0.00D+00 EMaxC= 1.00D-01 BMatC= 2.03D-09 BMatP= 5.14D-10
 IDIUse=1 WtCom= 1.00D+00 WtEn= 0.00D+00
 Coeff-Com: -0.492D-01 0.523D+00 0.425D+00 0.101D+00
 Coeff:     -0.492D-01 0.523D+00 0.425D+00 0.101D+00
 Gap=     0.042 Goal=   None    Shift=    0.000
 RMSDP=2.02D-06 MaxDP=1.89D-05 DE=-1.15D-09 OVMax= 4.06D-05

 Cycle  16  Pass 1  IDiag  1:
 E= -39.8216246327464     Delta-E=       -0.000000003791 Rises=F Damp=F
 DIIS: error= 2.40D-06 at cycle   5 NSaved=   5.
 NSaved= 5 IEnMin= 5 EnMin= -39.8216246327464     IErMin= 5 ErrMin= 2.40D-06
 ErrMax= 2.40D-06  0.00D+00 EMaxC= 1.00D-01 BMatC= 6.97D-11 BMatP= 5.14D-10
 IDIUse=1 WtCom= 1.00D+00 WtEn= 0.00D+00
 Coeff-Com: -0.491D-01 0.435D+00 0.340D+00 0.888D-01 0.185D+00
 Coeff:     -0.491D-01 0.435D+00 0.340D+00 0.888D-01 0.185D+00
 Gap=     0.042 Goal=   None    Shift=    0.000
 RMSDP=8.64D-07 MaxDP=7.13D-06 DE=-3.79D-09 OVMax= 1.74D-05

 Cycle  17  Pass 1  IDiag  1:
 E= -39.8216246329190     Delta-E=       -0.000000000173 Rises=F Damp=F
 DIIS: error= 1.44D-06 at cycle   6 NSaved=   6.
 NSaved= 6 IEnMin= 6 EnMin= -39.8216246329190     IErMin= 6 ErrMin= 1.44D-06
 ErrMax= 1.44D-06  0.00D+00 EMaxC= 1.00D-01 BMatC= 2.84D-11 BMatP= 6.97D-11
 IDIUse=1 WtCom= 1.00D+00 WtEn= 0.00D+00
 Coeff-Com: -0.454D-02-0.161D+00-0.257D+00-0.402D-01 0.440D+00 0.102D+01
 Coeff:     -0.454D-02-0.161D+00-0.257D+00-0.402D-01 0.440D+00 0.102D+01
 Gap=     0.042 Goal=   None    Shift=    0.000
 RMSDP=2.18D-06 MaxDP=1.39D-05 DE=-1.73D-10 OVMax= 4.28D-05

 Cycle  18  Pass 1  IDiag  1:
 E= -39.8216246333307     Delta-E=       -0.000000000412 Rises=F Damp=F
 DIIS: error= 6.88D-07 at cycle   7 NSaved=   7.
 NSaved= 7 IEnMin= 7 EnMin= -39.8216246333307     IErMin= 7 ErrMin= 6.88D-07
 ErrMax= 6.88D-07  0.00D+00 EMaxC= 1.00D-01 BMatC= 6.72D-12 BMatP= 2.84D-11
 IDIUse=1 WtCom= 1.00D+00 WtEn= 0.00D+00
 Coeff-Com:  0.295D-01-0.298D+00-0.353D+00-0.835D-01 0.114D-01 0.254D+00
 Coeff-Com:  0.144D+01
 Coeff:      0.295D-01-0.298D+00-0.353D+00-0.835D-01 0.114D-01 0.254D+00
 Coeff:      0.144D+01
 Gap=     0.042 Goal=   None    Shift=    0.000
 RMSDP=2.66D-06 MaxDP=1.67D-05 DE=-4.12D-10 OVMax= 5.25D-05

 Cycle  19  Pass 1  IDiag  1:
 E= -39.8216246335200     Delta-E=       -0.000000000189 Rises=F Damp=F
 DIIS: error= 4.02D-07 at cycle   8 NSaved=   8.
 NSaved= 8 IEnMin= 8 EnMin= -39.8216246335200     IErMin= 8 ErrMin= 4.02D-07
 ErrMax= 4.02D-07  0.00D+00 EMaxC= 1.00D-01 BMatC= 2.60D-12 BMatP= 6.72D-12
 IDIUse=1 WtCom= 1.00D+00 WtEn= 0.00D+00
 Coeff-Com:  0.523D-02-0.396D-01-0.412D-01-0.415D-01 0.658D-02-0.297D-01
 Coeff-Com:  0.230D+00 0.910D+00
 Coeff:      0.523D-02-0.396D-01-0.412D-01-0.415D-01 0.658D-02-0.297D-01
 Coeff:      0.230D+00 0.910D+00
 Gap=     0.042 Goal=   None    Shift=    0.000
 RMSDP=2.93D-07 MaxDP=1.81D-06 DE=-1.89D-10 OVMax= 6.24D-06

 Cycle  20  Pass 1  IDiag  1:
 E= -39.8216246335268     Delta-E=       -0.000000000007 Rises=F Damp=F
 DIIS: error= 7.56D-08 at cycle   9 NSaved=   9.
 NSaved= 9 IEnMin= 9 EnMin= -39.8216246335268     IErMin= 9 ErrMin= 7.56D-08
 ErrMax= 7.56D-08  0.00D+00 EMaxC= 1.00D-01 BMatC= 6.07D-14 BMatP= 2.60D-12
 IDIUse=1 WtCom= 1.00D+00 WtEn= 0.00D+00
 Coeff-Com: -0.184D-02 0.179D-01 0.243D-01 0.505D-02-0.170D-01-0.812D-02
 Coeff-Com: -0.833D-01 0.775D-01 0.986D+00
 Coeff:     -0.184D-02 0.179D-01 0.243D-01 0.505D-02-0.170D-01-0.812D-02
 Coeff:     -0.833D-01 0.775D-01 0.986D+00
 Gap=     0.042 Goal=   None    Shift=    0.000
 RMSDP=4.97D-08 MaxDP=3.06D-07 DE=-6.72D-12 OVMax= 1.14D-06

 Cycle  21  Pass 1  IDiag  1:
 E= -39.8216246335269     Delta-E=        0.000000000000 Rises=F Damp=F
 DIIS: error= 2.21D-08 at cycle  10 NSaved=  10.
 NSaved=10 IEnMin=10 EnMin= -39.8216246335269     IErMin=10 ErrMin= 2.21D-08
 ErrMax= 2.21D-08  0.00D+00 EMaxC= 1.00D-01 BMatC= 9.59D-15 BMatP= 6.07D-14
 IDIUse=1 WtCom= 1.00D+00 WtEn= 0.00D+00
 Coeff-Com: -0.107D-02 0.688D-02 0.890D-02 0.115D-01-0.556D-02 0.847D-02
 Coeff-Com: -0.439D-01-0.222D+00-0.273D-01 0.126D+01
 Coeff:     -0.107D-02 0.688D-02 0.890D-02 0.115D-01-0.556D-02 0.847D-02
 Coeff:     -0.439D-01-0.222D+00-0.273D-01 0.126D+01
 Gap=     0.042 Goal=   None    Shift=    0.000
 RMSDP=3.61D-08 MaxDP=2.05D-07 DE=-1.49D-13 OVMax= 7.40D-07

 Cycle  22  Pass 1  IDiag  1:
 E= -39.8216246335273     Delta-E=        0.000000000000 Rises=F Damp=F
 DIIS: error= 1.18D-08 at cycle  11 NSaved=  11.
 NSaved=11 IEnMin=11 EnMin= -39.8216246335273     IErMin=11 ErrMin= 1.18D-08
 ErrMax= 1.18D-08  0.00D+00 EMaxC= 1.00D-01 BMatC= 2.51D-15 BMatP= 9.59D-15
 IDIUse=1 WtCom= 1.00D+00 WtEn= 0.00D+00
 Coeff-Com:  0.450D-04-0.116D-02-0.979D-03-0.669D-03 0.338D-02-0.952D-03
 Coeff-Com:  0.462D-02-0.177D-01-0.107D+00 0.605D-01 0.106D+01
 Coeff:      0.450D-04-0.116D-02-0.979D-03-0.669D-03 0.338D-02-0.952D-03
 Coeff:      0.462D-02-0.177D-01-0.107D+00 0.605D-01 0.106D+01
 Gap=     0.042 Goal=   None    Shift=    0.000
 RMSDP=8.52D-09 MaxDP=4.71D-08 DE=-3.91D-13 OVMax= 1.50D-07

 SCF Done:  E(RB3LYP) =  -39.8216246335     A.U. after   22 cycles
            NFock= 22  Conv=0.85D-08     -V/T= 2.0191
 KE= 3.907541149477D+01 PE=-1.041339753043D+02 EE= 1.884784609685D+01
 Leave Link  502 at Thu Mar 19 16:57:02 2026, MaxMem=   536870912 cpu:         2.0
 (Enter C:\G09W\l701.exe)
 Compute integral first derivatives.
 ... and contract with generalized density number  0.
 Leave Link  701 at Thu Mar 19 16:57:02 2026, MaxMem=   536870912 cpu:         0.0
 (Enter C:\G09W\l702.exe)
 L702 exits ... SP integral derivatives will be done elsewhere.
 Leave Link  702 at Thu Mar 19 16:57:03 2026, MaxMem=   536870912 cpu:         0.0
 (Enter C:\G09W\l703.exe)
 Compute integral first derivatives, UseDBF=F ICtDFT=           0.
 Integral derivatives from FoFJK, PRISM(SPDF).
 Calling FoFJK, ICntrl=      2127 FMM=F ISym2X=0 I1Cent= 0 IOpClX= 0 NMat=1 NMatS=1 NMatT=0.
 FoFJK:  IHMeth= 1 ICntrl=    2127 DoSepK=F KAlg= 0 I1Cent=   0 FoldK=F
 IRaf=         0 NMat=   1 IRICut=       1 DoRegI=T DoRafI=F ISym2E= 0.
 FoFCou: FMM=F IPFlag=           0 FMFlag=      100000 FMFlg1=         800
         NFxFlg=           0 DoJE=F BraDBF=F KetDBF=F FulRan=T
         wScrn=  0.000000 ICntrl=    2127 IOpCl=  0 I1Cent=           0 NGrid=           0
         NMat0=    1 NMatS0=      1 NMatT0=    0 NMatD0=    1 NMtDS0=    0 NMtDT0=    0
 Symmetry not used in FoFCou.
 Leave Link  703 at Thu Mar 19 16:57:03 2026, MaxMem=   536870912 cpu:         0.0
 (Enter C:\G09W\l716.exe)
 Dipole        = 2.10115795D-01-8.04994089D-02-3.12052685D-02
 ***** Axes restored to original set *****
 -------------------------------------------------------------------
 Center     Atomic                   Forces (Hartrees/Bohr)
 Number     Number              X              Y              Z
 -------------------------------------------------------------------
      1        6           0.015744782   -0.044452482   -0.065586478
      2        1          -0.006098569    0.004631180    0.017950728
      3        1          -0.011007928   -0.002693447    0.016684874
      4        1           0.009517577    0.016622109    0.020650630
      5        1          -0.008155862    0.025892640    0.010300246
 -------------------------------------------------------------------
 Cartesian Forces:  Max     0.065586478 RMS     0.024426160
 Leave Link  716 at Thu Mar 19 16:57:03 2026, MaxMem=   536870912 cpu:         0.0
 (Enter C:\G09W\l103.exe)

 GradGradGradGradGradGradGradGradGradGradGradGradGradGradGradGradGradGrad
 Berny optimization.
 Using GEDIIS/GDIIS optimizer.
 FormGI is forming the generalized inverse of G from B-inverse, IUseBI=4.
 Internal  Forces:  Max     0.080646789 RMS     0.031166138
 Search for a local minimum.
 Step number   2 out of a maximum of   21
 All quantities printed in internal units (Hartrees-Bohrs-Radians)
 RMS Force = .31166D-01 SwitMx=.10000D-02 MixMth= 1
 Mixed Optimization -- RFO/linear search
 Update second derivatives using D2CorX and points    1    2
 DE= -2.84D-02 DEPred=-2.39D-02 R= 1.19D+00
 TightC=F SS=  1.41D+00  RLast= 3.04D-01 DXNew= 5.0454D-01 9.1158D-01
 Trust test= 1.19D+00 RLast= 3.04D-01 DXMaxT set to 5.05D-01
 The second derivative matrix:
                          R1        R2        R3        R4        A1
           R1          -0.00062
           R2          -0.01079   0.01082
           R3          -0.01028  -0.00091   0.02725
           R4          -0.01149  -0.00095  -0.00211   0.02912
           A1          -0.03205  -0.00528  -0.00431  -0.00479   0.14548
           A2          -0.02321  -0.00388  -0.00309  -0.00342  -0.01054
           A3          -0.01204  -0.00184  -0.00171  -0.00191  -0.00539
           A4           0.00111  -0.00181   0.00134   0.00163  -0.00038
           A5           0.01884   0.00162   0.00343   0.00391   0.00787
           A6           0.04429   0.00913   0.00486   0.00526   0.02088
           D1          -0.01515  -0.00475  -0.00069  -0.00060  -0.00786
                          A2        A3        A4        A5        A6
           A2           0.15235
           A3          -0.00390   0.15798
           A4          -0.00038   0.00013   0.15627
           A5           0.00564   0.00313  -0.00257   0.15366
           A6           0.01525   0.00750   0.00397  -0.00876   0.12684
           D1          -0.00582  -0.00261  -0.00440   0.00113   0.01517
                          D1
           D1          -0.00670
 ITU=  1  0
 Use linear search instead of GDIIS.
     Eigenvalues ---   -0.04856   0.01411   0.02956   0.03211   0.07502
     Eigenvalues ---    0.13601   0.15658   0.16000   0.16000
 Eigenvalue     1 is  -4.86D-02 should be greater than     0.000000 Eigenvector:
                          R1        A6        R2        D1        A1
   1                    0.79047  -0.31159   0.25089   0.24926   0.21504
                          R4        R3        A2        A5        A3
   1                    0.17678   0.16417   0.15818  -0.11931   0.08581
 RFO step:  Lambda=-1.29693584D-01 EMin=-4.85571069D-02
 Skip linear search -- no minimum in search direction.
 Maximum step size (   0.505) exceeded in Quadratic search.
    -- Step size scaled by   0.516
 Iteration  1 RMS(Cart)=  0.16004828 RMS(Int)=  0.06529861
 Iteration  2 RMS(Cart)=  0.05263588 RMS(Int)=  0.00678723
 Iteration  3 RMS(Cart)=  0.00376377 RMS(Int)=  0.00535908
 Iteration  4 RMS(Cart)=  0.00000136 RMS(Int)=  0.00535908
 Iteration  5 RMS(Cart)=  0.00000001 RMS(Int)=  0.00535908
 ITry= 1 IFail=0 DXMaxC= 4.47D-01 DCOld= 1.00D+10 DXMaxT= 5.05D-01 DXLimC= 3.00D+00 Rises=F
 Variable       Old X    -DE/DX   Delta X   Delta X   Delta X     New X
                                 (Linear)    (Quad)   (Total)
    R1        3.02227  -0.08065   0.00000  -0.40962  -0.40962   2.61265
    R2        4.72635  -0.01651   0.00000  -0.09646  -0.09646   4.62988
    R3        3.55267  -0.02384   0.00000  -0.10845  -0.10845   3.44422
    R4        3.44306  -0.02582   0.00000  -0.11693  -0.11693   3.32613
    A1        1.69408  -0.02381   0.00000  -0.11375  -0.11300   1.58108
    A2        2.04848  -0.01653   0.00000  -0.08170  -0.08093   1.96756
    A3        2.14897  -0.00787   0.00000  -0.04198  -0.04115   2.10783
    A4        1.94448  -0.00016   0.00000   0.01244   0.00048   1.94496
    A5        1.96870   0.02015   0.00000   0.07631   0.07079   2.03948
    A6        1.67180   0.02987   0.00000   0.15664   0.14997   1.82177
    D1       -2.02707  -0.02173   0.00000  -0.11955  -0.12935  -2.15643
         Item               Value     Threshold  Converged?
 Maximum Force            0.080647     0.000450     NO 
 RMS     Force            0.031166     0.000300     NO 
 Maximum Displacement     0.446853     0.001800     NO 
 RMS     Displacement     0.201420     0.001200     NO 
 Predicted change in Energy=-5.978269D-02
 Lowest energy point so far.  Saving SCF results.
 GradGradGradGradGradGradGradGradGradGradGradGradGradGradGradGradGradGrad

 Leave Link  103 at Thu Mar 19 16:57:04 2026, MaxMem=   536870912 cpu:         1.0
 (Enter C:\G09W\l202.exe)
                          Input orientation:                          
 ---------------------------------------------------------------------
 Center     Atomic      Atomic             Coordinates (Angstroms)
 Number     Number       Type             X           Y           Z
 ---------------------------------------------------------------------
      1          6           0       -0.325237    0.763126    1.184518
      2          1           0       -0.074311   -0.120566    0.151276
      3          1           0        1.285329    1.565300   -0.994098
      4          1           0       -1.571320   -0.530441   -0.804150
      5          1           0        0.685539   -1.677419    0.462456
 ---------------------------------------------------------------------
                    Distance matrix (angstroms):
                    1          2          3          4          5
     1  C    0.000000
     2  H    1.382557   0.000000
[...]
 E= -40.2862077355149     Delta-E=       -0.000338703041 Rises=F Damp=F
 DIIS: error= 3.17D-04 at cycle   2 NSaved=   2.
 NSaved= 2 IEnMin= 2 EnMin= -40.2862077355149     IErMin= 2 ErrMin= 3.17D-04
 ErrMax= 3.17D-04  0.00D+00 EMaxC= 1.00D-01 BMatC= 3.93D-06 BMatP= 1.24D-04
 IDIUse=3 WtCom= 9.97D-01 WtEn= 3.17D-03
 Coeff-Com: -0.373D-01 0.104D+01
 Coeff-En:   0.000D+00 0.100D+01
 Coeff:     -0.372D-01 0.104D+01
 Gap=     0.139 Goal=   None    Shift=    0.000
 RMSDP=2.84D-04 MaxDP=2.19D-03 DE=-3.39D-04 OVMax= 1.78D-03

 Cycle   3  Pass 0  IDiag  1:
 E= -40.2862145664368     Delta-E=       -0.000006830922 Rises=F Damp=F
 DIIS: error= 2.19D-04 at cycle   3 NSaved=   3.
 NSaved= 3 IEnMin= 3 EnMin= -40.2862145664368     IErMin= 3 ErrMin= 2.19D-04
 ErrMax= 2.19D-04  0.00D+00 EMaxC= 1.00D-01 BMatC= 1.06D-06 BMatP= 3.93D-06
 IDIUse=3 WtCom= 9.98D-01 WtEn= 2.19D-03
 Coeff-Com: -0.239D-01 0.329D+00 0.695D+00
 Coeff-En:   0.000D+00 0.000D+00 0.100D+01
 Coeff:     -0.238D-01 0.328D+00 0.695D+00
 Gap=     0.138 Goal=   None    Shift=    0.000
 RMSDP=8.42D-05 MaxDP=8.22D-04 DE=-6.83D-06 OVMax= 8.95D-04

 Cycle   4  Pass 0  IDiag  1:
 E= -40.2862160248794     Delta-E=       -0.000001458443 Rises=F Damp=F
 DIIS: error= 1.04D-04 at cycle   4 NSaved=   4.
 NSaved= 4 IEnMin= 4 EnMin= -40.2862160248794     IErMin= 4 ErrMin= 1.04D-04
 ErrMax= 1.04D-04  0.00D+00 EMaxC= 1.00D-01 BMatC= 2.61D-07 BMatP= 1.06D-06
 IDIUse=3 WtCom= 9.99D-01 WtEn= 1.04D-03
 Coeff-Com: -0.108D-01 0.752D-01 0.345D+00 0.591D+00
 Coeff-En:   0.000D+00 0.000D+00 0.534D-01 0.947D+00
 Coeff:     -0.108D-01 0.751D-01 0.345D+00 0.591D+00
 Gap=     0.138 Goal=   None    Shift=    0.000
 RMSDP=3.16D-05 MaxDP=3.39D-04 DE=-1.46D-06 OVMax= 2.28D-04

 Cycle   5  Pass 0  IDiag  1:
 E= -40.2862163527364     Delta-E=       -0.000000327857 Rises=F Damp=F
 DIIS: error= 8.66D-06 at cycle   5 NSaved=   5.
 NSaved= 5 IEnMin= 5 EnMin= -40.2862163527364     IErMin= 5 ErrMin= 8.66D-06
 ErrMax= 8.66D-06  0.00D+00 EMaxC= 1.00D-01 BMatC= 2.27D-09 BMatP= 2.61D-07
 IDIUse=1 WtCom= 1.00D+00 WtEn= 0.00D+00
 Coeff-Com:  0.178D-03-0.128D-01 0.146D-01 0.839D-01 0.914D+00
 Coeff:      0.178D-03-0.128D-01 0.146D-01 0.839D-01 0.914D+00
 Gap=     0.138 Goal=   None    Shift=    0.000
 RMSDP=4.55D-06 MaxDP=2.55D-05 DE=-3.28D-07 OVMax= 4.40D-05

 Initial convergence to 1.0D-05 achieved.  Increase integral accuracy.
 Cycle   6  Pass 1  IDiag  1:
 E= -40.2862242242207     Delta-E=       -0.000007871484 Rises=F Damp=F
 DIIS: error= 3.90D-06 at cycle   1 NSaved=   1.
 NSaved= 1 IEnMin= 1 EnMin= -40.2862242242207     IErMin= 1 ErrMin= 3.90D-06
 ErrMax= 3.90D-06  0.00D+00 EMaxC= 1.00D-01 BMatC= 3.44D-10 BMatP= 3.44D-10
 IDIUse=1 WtCom= 1.00D+00 WtEn= 0.00D+00
 Coeff-Com:  0.100D+01
 Coeff:      0.100D+01
 Gap=     0.138 Goal=   None    Shift=    0.000
 RMSDP=4.55D-06 MaxDP=2.55D-05 DE=-7.87D-06 OVMax= 8.61D-06

 Cycle   7  Pass 1  IDiag  1:
 E= -40.2862242245198     Delta-E=       -0.000000000299 Rises=F Damp=F
 DIIS: error= 1.33D-06 at cycle   2 NSaved=   2.
 NSaved= 2 IEnMin= 2 EnMin= -40.2862242245198     IErMin= 2 ErrMin= 1.33D-06
 ErrMax= 1.33D-06  0.00D+00 EMaxC= 1.00D-01 BMatC= 5.54D-11 BMatP= 3.44D-10
 IDIUse=1 WtCom= 1.00D+00 WtEn= 0.00D+00
 Coeff-Com:  0.248D+00 0.752D+00
 Coeff:      0.248D+00 0.752D+00
 Gap=     0.138 Goal=   None    Shift=    0.000
 RMSDP=6.28D-07 MaxDP=3.85D-06 DE=-2.99D-10 OVMax= 8.87D-06

 Cycle   8  Pass 1  IDiag  1:
 E= -40.2862242245909     Delta-E=       -0.000000000071 Rises=F Damp=F
 DIIS: error= 5.71D-07 at cycle   3 NSaved=   3.
 NSaved= 3 IEnMin= 3 EnMin= -40.2862242245909     IErMin= 3 ErrMin= 5.71D-07
 ErrMax= 5.71D-07  0.00D+00 EMaxC= 1.00D-01 BMatC= 9.82D-12 BMatP= 5.54D-11
 IDIUse=1 WtCom= 1.00D+00 WtEn= 0.00D+00
 Coeff-Com: -0.161D-01 0.275D+00 0.741D+00
 Coeff:     -0.161D-01 0.275D+00 0.741D+00
 Gap=     0.138 Goal=   None    Shift=    0.000
 RMSDP=1.64D-07 MaxDP=1.47D-06 DE=-7.11D-11 OVMax= 1.22D-06

 Cycle   9  Pass 1  IDiag  1:
 E= -40.2862242246013     Delta-E=       -0.000000000010 Rises=F Damp=F
 DIIS: error= 1.62D-07 at cycle   4 NSaved=   4.
 NSaved= 4 IEnMin= 4 EnMin= -40.2862242246013     IErMin= 4 ErrMin= 1.62D-07
 ErrMax= 1.62D-07  0.00D+00 EMaxC= 1.00D-01 BMatC= 7.41D-13 BMatP= 9.82D-12
 IDIUse=1 WtCom= 1.00D+00 WtEn= 0.00D+00
 Coeff-Com: -0.216D-01 0.120D+00 0.374D+00 0.527D+00
 Coeff:     -0.216D-01 0.120D+00 0.374D+00 0.527D+00
 Gap=     0.138 Goal=   None    Shift=    0.000
 RMSDP=5.05D-08 MaxDP=4.65D-07 DE=-1.04D-11 OVMax= 4.41D-07

 Cycle  10  Pass 1  IDiag  1:
 E= -40.2862242246023     Delta-E=       -0.000000000001 Rises=F Damp=F
 DIIS: error= 2.79D-08 at cycle   5 NSaved=   5.
 NSaved= 5 IEnMin= 5 EnMin= -40.2862242246023     IErMin= 5 ErrMin= 2.79D-08
 ErrMax= 2.79D-08  0.00D+00 EMaxC= 1.00D-01 BMatC= 2.33D-14 BMatP= 7.41D-13
 IDIUse=1 WtCom= 1.00D+00 WtEn= 0.00D+00
 Coeff-Com:  0.668D-05-0.455D-02-0.574D-01-0.639D-01 0.113D+01
 Coeff:      0.668D-05-0.455D-02-0.574D-01-0.639D-01 0.113D+01
 Gap=     0.138 Goal=   None    Shift=    0.000
 RMSDP=2.12D-08 MaxDP=1.25D-07 DE=-9.81D-13 OVMax= 3.51D-07

 Cycle  11  Pass 1  IDiag  1:
 E= -40.2862242246024     Delta-E=        0.000000000000 Rises=F Damp=F
 DIIS: error= 1.21D-08 at cycle   6 NSaved=   6.
 NSaved= 6 IEnMin= 6 EnMin= -40.2862242246024     IErMin= 6 ErrMin= 1.21D-08
 ErrMax= 1.21D-08  0.00D+00 EMaxC= 1.00D-01 BMatC= 3.09D-15 BMatP= 2.33D-14
 IDIUse=1 WtCom= 1.00D+00 WtEn= 0.00D+00
 Coeff-Com:  0.121D-02-0.846D-02-0.446D-01-0.707D-01 0.297D+00 0.826D+00
 Coeff:      0.121D-02-0.846D-02-0.446D-01-0.707D-01 0.297D+00 0.826D+00
 Gap=     0.138 Goal=   None    Shift=    0.000
 RMSDP=4.98D-09 MaxDP=2.72D-08 DE=-1.28D-13 OVMax= 5.90D-08

 SCF Done:  E(RB3LYP) =  -40.2862242246     A.U. after   11 cycles
            NFock= 11  Conv=0.50D-08     -V/T= 2.0051
 KE= 4.008030513594D+01 PE=-1.160450509078D+02 EE= 2.396732860180D+01
 Leave Link  502 at Thu Mar 19 16:58:20 2026, MaxMem=   536870912 cpu:         1.0
 (Enter C:\G09W\l701.exe)
 Compute integral first derivatives.
 ... and contract with generalized density number  0.
 Leave Link  701 at Thu Mar 19 16:58:21 2026, MaxMem=   536870912 cpu:         0.0
 (Enter C:\G09W\l702.exe)
 L702 exits ... SP integral derivatives will be done elsewhere.
 Leave Link  702 at Thu Mar 19 16:58:21 2026, MaxMem=   536870912 cpu:         0.0
 (Enter C:\G09W\l703.exe)
 Compute integral first derivatives, UseDBF=F ICtDFT=           0.
 Integral derivatives from FoFJK, PRISM(SPDF).
 Calling FoFJK, ICntrl=      2127 FMM=F ISym2X=0 I1Cent= 0 IOpClX= 0 NMat=1 NMatS=1 NMatT=0.
 FoFJK:  IHMeth= 1 ICntrl=    2127 DoSepK=F KAlg= 0 I1Cent=   0 FoldK=F
 IRaf=         0 NMat=   1 IRICut=       1 DoRegI=T DoRafI=F ISym2E= 0.
 FoFCou: FMM=F IPFlag=           0 FMFlag=      100000 FMFlg1=         800
         NFxFlg=           0 DoJE=F BraDBF=F KetDBF=F FulRan=T
         wScrn=  0.000000 ICntrl=    2127 IOpCl=  0 I1Cent=           0 NGrid=           0
         NMat0=    1 NMatS0=      1 NMatT0=    0 NMatD0=    1 NMtDS0=    0 NMtDT0=    0
 Symmetry not used in FoFCou.
 Leave Link  703 at Thu Mar 19 16:58:21 2026, MaxMem=   536870912 cpu:         0.0
 (Enter C:\G09W\l716.exe)
 Dipole        =-5.82740756D-01 1.28000285D-01 7.29708674D-01
 ***** Axes restored to original set *****
 -------------------------------------------------------------------
 Center     Atomic                   Forces (Hartrees/Bohr)
 Number     Number              X              Y              Z
 -------------------------------------------------------------------
      1        6           0.034624829    0.025407221    0.026975975
      2        1           0.027046547   -0.041168557    0.012338825
      3        1          -0.005938430    0.001799481    0.002570755
      4        1          -0.044354125   -0.006368339   -0.039853373
      5        1          -0.011378822    0.020330195   -0.002032182
 -------------------------------------------------------------------
 Cartesian Forces:  Max     0.044354125 RMS     0.024951811
 Leave Link  716 at Thu Mar 19 16:58:22 2026, MaxMem=   536870912 cpu:         0.0
 (Enter C:\G09W\l103.exe)

 GradGradGradGradGradGradGradGradGradGradGradGradGradGradGradGradGradGrad
 Berny optimization.
 Using GEDIIS/GDIIS optimizer.
 FormGI is forming the generalized inverse of G from B-inverse, IUseBI=4.
 Internal  Forces:  Max     0.069737341 RMS     0.031896893
 Search for a local minimum.
 Step number  21 out of a maximum of   21
 All quantities printed in internal units (Hartrees-Bohrs-Radians)
 RMS Force = .31897D-01 SwitMx=.10000D-02 MixMth= 1
 Mixed Optimization -- RFO/linear search
 Update second derivatives using D2CorX and points   12   14   13   15   16
                                                     17   18   19   21   20
 DE=  1.61D-03 DEPred=-1.46D-03 R=-1.10D+00
 Trust test=-1.10D+00 RLast= 1.22D-01 DXMaxT set to 6.00D-01
 The second derivative matrix:
                          R1        R2        R3        R4        A1
           R1           0.18184
           R2          -0.03064   0.14571
           R3           0.05422   0.00352   0.14034
           R4          -0.00615   0.00001   0.10239   0.25432
           A1           0.01773   0.40128  -0.02951   0.00422   1.94029
           A2           0.29869  -0.00808   0.29775   0.09365   0.04028
           A3          -0.22855   0.02014   0.04707   0.14567  -0.19056
           A4           0.04806   0.03471   0.18356   0.12082  -0.18058
           A5           0.04759  -0.02136   0.18426   0.12280   0.07369
           A6          -0.09763  -0.01291  -0.35277  -0.23672   0.13186
           D1          -0.00003   0.00000  -0.00060  -0.00128  -0.00036
                          A2        A3        A4        A5        A6
           A2           1.55975
           A3           0.09722   1.09036
           A4           0.69035   0.62721   0.89805
           A5           0.85046   0.40057   0.52624   0.81811
           A6          -1.45112  -0.93013  -1.22596  -1.13062   2.36393
           D1           0.00485   0.00482   0.00472   0.00456  -0.00871
                          D1
           D1           0.00008
 ITU= -1  1  1  1  1  0  0  0  0 -1  1  1
 Use linear search instead of GDIIS.
 Skip linear search -- no minimum in search direction.
 Steepest descent instead of Quadratic search.
 Steepest descent step scaled to max of 0.05000.
 SLEqS3 Cycle:   151 Max:0.336518E-01 RMS:0.152452E-01 Conv:0.317997E-07
 SLEqS3 Cycle:   151 Max:0.336518E-01 RMS:0.152452E-01 Conv:0.317997E-07
 Iteration  1 RMS(Cart)=  0.01746025 RMS(Int)=  0.01428020
 SLEqS3 Cycle:    65 Max:0.140203E-01 RMS:0.632252E-02 Conv:0.570684E-04
 Iteration  2 RMS(Cart)=  0.01274603 RMS(Int)=  0.00600886
 SLEqS3 Cycle:   151 Max:0.709544E-05 RMS:0.263656E-05 Conv:0.519385E-06
 Iteration  3 RMS(Cart)=  0.00538033 RMS(Int)=  0.00056698
 Iteration  4 RMS(Cart)=  0.00001313 RMS(Int)=  0.00000558
 Iteration  5 RMS(Cart)=  0.00000002 RMS(Int)=  0.00000543
 ITry= 1 IFail=0 DXMaxC= 6.09D-02 DCOld= 1.00D+10 DXMaxT= 6.00D-01 DXLimC= 3.00D+00 Rises=T
 Variable       Old X    -DE/DX   Delta X   Delta X   Delta X     New X
                                 (Linear)    (Quad)   (Total)
    R1        2.72504   0.01968   0.00000   0.01411   0.01411   2.73916
    R2        3.47076  -0.00088   0.00000  -0.00063  -0.00063   3.47013
    R3        2.39457   0.04221   0.00000   0.03026   0.03026   2.42483
    R4        1.53404  -0.02105   0.00000  -0.01509  -0.01509   1.51895
    A1        0.66124  -0.01850   0.00000  -0.01326  -0.01326   0.64798
    A2        0.78599   0.06974   0.00000   0.05000   0.05001   0.83600
    A3        2.35560  -0.05254   0.00000  -0.03767  -0.03766   2.31794
    A4        1.08295   0.00653   0.00000   0.00468   0.00467   1.08763
    A5        2.05864   0.01305   0.00000   0.00936   0.00935   2.06799
    A6        3.14159  -0.01999   0.00000  -0.01433  -0.01433   3.12726
    D1       -2.93105   0.00000   0.00000   0.00000   0.00000  -2.93106
         Item               Value     Threshold  Converged?
 Maximum Force            0.069737     0.000450     NO 
 RMS     Force            0.031897     0.000300     NO 
 Maximum Displacement     0.060947     0.001800     NO 
 RMS     Displacement     0.032079     0.001200     NO 
 Predicted change in Energy=-1.384481D-03
 Optimization stopped.
    -- Number of steps exceeded,  NStep=  21
    -- Flag reset to prevent archiving.
                           ----------------------------
                           ! Non-Optimized Parameters !
                           ! (Angstroms and Degrees)  !
 --------------------------                            --------------------------
 ! Name  Definition              Value          Derivative Info.                !
 --------------------------------------------------------------------------------
 ! R1    R(1,2)                  1.4495         -DE/DX =    0.0197              !
 ! R2    R(2,3)                  1.8363         -DE/DX =   -0.0009              !
 ! R3    R(2,4)                  1.2832         -DE/DX =    0.0422              !
 ! R4    R(2,5)                  0.8038         -DE/DX =   -0.021               !
 ! A1    A(1,2,3)               37.1264         -DE/DX =   -0.0185              !
 ! A2    A(1,2,4)               47.8991         -DE/DX =    0.0697              !
 ! A3    A(1,2,5)              132.8083         -DE/DX =   -0.0525              !
 ! A4    A(3,2,4)               62.3164         -DE/DX =    0.0065              !
 ! A5    A(3,2,5)              118.4869         -DE/DX =    0.013               !
 ! A6    A(4,2,5)              179.1787         -DE/DX =   -0.02                !
 ! D1    D(3,2,5,4)           -167.9371         -DE/DX =    0.0                 !
 --------------------------------------------------------------------------------
 GradGradGradGradGradGradGradGradGradGradGradGradGradGradGradGradGradGrad

 Largest change from initial coordinates is atom    3       1.668 Angstoms.
 Leave Link  103 at Thu Mar 19 16:58:22 2026, MaxMem=   536870912 cpu:         0.0
 (Enter C:\G09W\l202.exe)
                          Input orientation:                          
 ---------------------------------------------------------------------
 Center     Atomic      Atomic             Coordinates (Angstroms)
 Number     Number       Type             X           Y           Z
 ---------------------------------------------------------------------
      1          6           0       -0.298415    0.730795    0.254829
      2          1           0        0.017062   -0.669497    0.116592
      3          1           0        0.559970    0.999111   -0.425867
      4          1           0       -0.853194    0.105715   -0.380778
      5          1           0        0.574577   -1.166124    0.435224
 ---------------------------------------------------------------------
                    Distance matrix (angstroms):
                    1          2          3          4          5
     1  C    0.000000
     2  H    1.442031   0.000000
     3  H    1.127903   1.836645   0.000000
     4  H    1.050000   1.267153   1.672489   0.000000
     5  H    2.095938   0.811780   2.330222   2.078933   0.000000
 Stoichiometry    CH4
 Framework group  C1[X(CH4)]
 Deg. of freedom     9
 Full point group                 C1      NOp   1
 RotChk:  IX=0 Diff= 3.13D-16
 Largest Abelian subgroup         C1      NOp   1
 Largest concise Abelian subgroup C1      NOp   1
                         Standard orientation:                         
 ---------------------------------------------------------------------
 Center     Atomic      Atomic             Coordinates (Angstroms)
 Number     Number       Type             X           Y           Z
 ---------------------------------------------------------------------
      1          6           0        0.378905   -0.050200   -0.161008
      2          1           0       -1.033981   -0.126080    0.117287
      3          1           0        0.457532    0.890789    0.455856
      4          1           0       -0.001659   -0.714190    0.557872
      5          1           0       -1.695321    0.250682   -0.164966
 ---------------------------------------------------------------------
 Rotational constants (GHZ):    227.2596894     78.8576655     71.9873376
 Leave Link  202 at Thu Mar 19 16:58:22 2026, MaxMem=   536870912 cpu:         0.0
 (Enter C:\G09W\l601.exe)
 Copying SCF densities to generalized density rwf, IOpCl= 0 IROHF=0.

 **********************************************************************

            Population analysis using the SCF density.

 **********************************************************************

 Orbital symmetries:
       Occupied  (A) (A) (A) (A) (A)
       Virtual   (A) (A) (A) (A) (A) (A) (A) (A) (A) (A) (A) (A)
                 (A) (A) (A) (A) (A) (A)
 The electronic state is 1-A.
 Alpha  occ. eigenvalues --  -10.22162  -0.72050  -0.46590  -0.39449  -0.23283
 Alpha virt. eigenvalues --   -0.09435   0.11311   0.13893   0.18547   0.53311
 Alpha virt. eigenvalues --    0.57646   0.59431   0.67623   0.80676   0.86639
 Alpha virt. eigenvalues --    0.94995   1.10327   1.67572   1.68427   1.80849
 Alpha virt. eigenvalues --    2.00442   2.29038   4.02244
          Condensed to atoms (all electrons):
               1          2          3          4          5
     1  C    5.917075  -0.023591   0.287466   0.239191   0.008811
     2  H   -0.023591   0.742163  -0.014559  -0.016264   0.352433
     3  H    0.287466  -0.014559   0.638362  -0.051742   0.001516
     4  H    0.239191  -0.016264  -0.051742   0.692902  -0.049612
     5  H    0.008811   0.352433   0.001516  -0.049612   0.542200
 Mulliken charges:
               1
     1  C   -0.428951
     2  H   -0.040182
     3  H    0.138956
     4  H    0.185524
     5  H    0.144653
 Sum of Mulliken charges =   0.00000
 Mulliken charges with hydrogens summed into heavy atoms:
               1
     1  C    0.000000
 Electronic spatial extent (au):  <R**2>=             45.7439
 Charge=              0.0000 electrons
 Dipole moment (field-independent basis, Debye):
    X=             -1.4812    Y=              0.3253    Z=              1.8547  Tot=              2.3958
 Quadrupole moment (field-independent basis, Debye-Ang):
   XX=             -7.4633   YY=             -9.0237   ZZ=            -10.8079
   XY=             -0.0969   XZ=              1.2687   YZ=             -0.4371
 Traceless Quadrupole moment (field-independent basis, Debye-Ang):
   XX=              1.6350   YY=              0.0746   ZZ=             -1.7096
   XY=             -0.0969   XZ=              1.2687   YZ=             -0.4371
 Octapole moment (field-independent basis, Debye-Ang**2):
  XXX=             -2.8626  YYY=              0.2897  ZZZ=              2.7684  XYY=             -0.3870
  XXY=              0.6800  XXZ=              0.7230  XZZ=             -1.0478  YZZ=              0.2527
  YYZ=              0.8965  XYZ=              0.0396
 Hexadecapole moment (field-independent basis, Debye-Ang**3):
 XXXX=            -29.0323 YYYY=            -15.8087 ZZZZ=            -16.1658 XXXY=             -1.4794
 XXXZ=              2.3527 YYYX=              0.2694 YYYZ=             -0.3099 ZZZX=              1.4063
 ZZZY=             -0.5378 XXYY=             -8.4089 XXZZ=             -8.8910 YYZZ=             -5.1915
 XXYZ=             -0.4407 YYXZ=              0.4541 ZZXY=              0.1822
 N-N= 1.171119294541D+01 E-N=-1.160450508968D+02  KE= 4.008030513594D+01
 No NMR shielding tensors so no spin-rotation constants.
 Leave Link  601 at Thu Mar 19 16:58:22 2026, MaxMem=   536870912 cpu:         0.0
 (Enter C:\G09W\l9999.exe)


 YOU CAN LEAD A BOY TO COLLEGE....
 BUT YOU CANNOT MAKE HIM THINK....
           ELBERT HUBBARD
 Error termination request processed by link 9999.
 Error termination via Lnk1e in C:\G09W\l9999.exe at Thu Mar 19 16:58:23 2026.
 Job cpu time:       0 days  0 hours  1 minutes 33.0 seconds.
 File lengths (MBytes):  RWF=      5 Int=      0 D2E=      0 Chk=      1 Scr=      1
