5
 energy: -3.538022796889 gnorm: 0.000644493194 xtb: 6.7.1 (edcfbbe)
C           -0.43349194323805        0.95528467717533        1.54379145009774
H           -0.09263381424640       -0.04953902635258        0.18964374069403
H            1.39219318341936        1.52934162624831       -1.13784524370580
H           -1.55988194567747       -0.67889634556078       -0.90861641578317
H            0.69381451974254       -1.75619093151024        0.31302746869724
