 Entering Gaussian System, Link 0=C:\G09W\g09.exe
 Input=methane_rdkit.com
 Output=C:\workspace\delta_chem\benchmark_results\methane\methane_rdkit.out
 Initial command:
 C:\G09W\l1.exe ".\Gau-9524.inp" "C:\workspace\delta_chem\benchmark_results\methane\methane_rdkit.out" /scrdir=".\"
 Entering Link 1 = C:\G09W\l1.exe PID=     21292.
  
 Copyright (c) 1988,1990,1992,1993,1995,1998,2003,2009,2013,
            Gaussian, Inc.  All Rights Reserved.
  
 This is part of the Gaussian(R) 09 program.  It is based on
 the Gaussian(R) 03 system (copyright 2003, Gaussian, Inc.),
 the Gaussian(R) 98 system (copyright 1998, Gaussian, Inc.),
 the Gaussian(R) 94 system (copyright 1995, Gaussian, Inc.),
 the Gaussian 92(TM) system (copyright 1992, Gaussian, Inc.),
 the Gaussian 90(TM) system (copyright 1990, Gaussian, Inc.),
 the Gaussian 88(TM) system (copyright 1988, Gaussian, Inc.),
 the Gaussian 86(TM) system (copyright 1986, Carnegie Mellon
 University), and the Gaussian 82(TM) system (copyright 1983,
 Carnegie Mellon University). Gaussian is a federally registered
 trademark of Gaussian, Inc.
  
 This software contains proprietary and confidential information,
 including trade secrets, belonging to Gaussian, Inc.
  
 This software is provided under written license and may be
 used, copied, transmitted, or stored only in accord with that
 written license.
  
 The following legend is applicable only to US Government
 contracts under FAR:
  
                    RESTRICTED RIGHTS LEGEND
  
 Use, reproduction and disclosure by the US Government is
 subject to restrictions as set forth in subparagraphs (a)
 and (c) of the Commercial Computer Software - Restricted
 Rights clause in FAR 52.227-19.
  
 Gaussian, Inc.
 340 Quinnipiac St., Bldg. 40, Wallingford CT 06492
  
  
 ---------------------------------------------------------------
 Warning -- This program may not be used in any manner that
 competes with the business of Gaussian, Inc. or will provide
 assistance to any competitor of Gaussian, Inc.  The licensee
 of this program is prohibited from giving any competitor of
 Gaussian, Inc. access to this program.  By using this program,
 the user acknowledges that Gaussian, Inc. is engaged in the
 business of creating and licensing software in the field of
 computational chemistry and represents and warrants to the
 licensee that it is not a competitor of Gaussian, Inc. and that
 it will not use this program in any manner prohibited above.
 ---------------------------------------------------------------
  

 Cite this work as:
 Gaussian 09, Revision D.01,
 M. J. Frisch, G. W. Trucks, H. B. Schlegel, G. E. Scuseria, 
 M. A. Robb, J. R. Cheeseman, G. Scalmani, V. Barone, B. Mennucci, 
 G. A. Petersson, H. Nakatsuji, M. Caricato, X. Li, H. P. Hratchian, 
 A. F. Izmaylov, J. Bloino, G. Zheng, J. L. Sonnenberg, M. Hada, 
 M. Ehara, K. Toyota, R. Fukuda, J. Hasegawa, M. Ishida, T. Nakajima, 
 Y. Honda, O. Kitao, H. Nakai, T. Vreven, J. A. Montgomery, Jr., 
 J. E. Peralta, F. Ogliaro, M. Bearpark, J. J. Heyd, E. Brothers, 
 K. N. Kudin, V. N. Staroverov, T. Keith, R. Kobayashi, J. Normand, 
 K. Raghavachari, A. Rendell, J. C. Burant, S. S. Iyengar, J. Tomasi, 
 M. Cossi, N. Rega, J. M. Millam, M. Klene, J. E. Knox, J. B. Cross, 
 V. Bakken, C. Adamo, J. Jaramillo, R. Gomperts, R. E. Stratmann, 
 O. Yazyev, A. J. Austin, R. Cammi, C. Pomelli, J. W. Ochterski, 
 R. L. Martin, K. Morokuma, V. G. Zakrzewski, G. A. Voth, 
 P. Salvador, J. J. Dannenberg, S. Dapprich, A. D. Daniels, 
 O. Farkas, J. B. Foresman, J. V. Ortiz, J. Cioslowski, 
 and D. J. Fox, Gaussian, Inc., Wallingford CT, 2013.
 
 ******************************************
 Gaussian 09:  EM64W-G09RevD.01 13-Apr-2013
                19-Mar-2026 
 ******************************************
 %NProcShared=4
 Will use up to    4 processors via shared memory.
 %Mem=4GB
 %Chk=methane_rdkit.chk
 ---------------------
 #p opt B3LYP/6-31G(d)
 ---------------------
 1/14=-1,18=20,19=15,26=3,38=1/1,3;
 2/9=110,12=2,17=6,18=5,40=1/2;
 3/5=1,6=6,7=1,11=2,16=1,25=1,30=1,71=1,74=-5/1,2,3;
 4//1;
 5/5=2,38=5/2;
 6/7=2,8=2,9=2,10=2,28=1/1;
 7//1,2,3,16;
 1/14=-1,18=20,19=15,26=3/3(2);
 2/9=110/2;
 99//99;
 2/9=110/2;
 3/5=1,6=6,7=1,11=2,16=1,25=1,30=1,71=1,74=-5/1,2,3;
 4/5=5,16=3,69=1/1;
 5/5=2,38=5/2;
 7//1,2,3,16;
 1/14=-1,18=20,19=15,26=3/3(-5);
 2/9=110/2;
 6/7=2,8=2,9=2,10=2,19=2,28=1/1;
 99/9=1/99;
 Leave Link    1 at Thu Mar 19 16:56:30 2026, MaxMem=   536870912 cpu:         0.0
 (Enter C:\G09W\l101.exe)
 ---------------
 methane [rdkit]
 ---------------
 Symbolic Z-matrix:
 Charge =  0 Multiplicity = 1
 C                     0.        0.        0. 
 H                    -0.67534   0.85412  -0.08536 
 H                    -0.39495  -0.83594  -0.58149 
 H                     0.08475  -0.29374   1.04854 
 H                     0.98554   0.27556  -0.38169 
 
 NAtoms=      5 NQM=        5 NQMF=       0 NMMI=      0 NMMIF=      0
                NMic=       0 NMicF=      0.
                    Isotopes and Nuclear Properties:
 (Nuclear quadrupole moments (NQMom) in fm**2, nuclear magnetic moments (NMagM)
  in nuclear magnetons)

  Atom         1           2           3           4           5
 IAtWgt=          12           1           1           1           1
 AtmWgt=  12.0000000   1.0078250   1.0078250   1.0078250   1.0078250
 NucSpn=           0           1           1           1           1
 AtZEff=   0.0000000   0.0000000   0.0000000   0.0000000   0.0000000
 NQMom=    0.0000000   0.0000000   0.0000000   0.0000000   0.0000000
 NMagM=    0.0000000   2.7928460   2.7928460   2.7928460   2.7928460
 AtZNuc=   6.0000000   1.0000000   1.0000000   1.0000000   1.0000000
 Leave Link  101 at Thu Mar 19 16:56:31 2026, MaxMem=   536870912 cpu:         1.0
 (Enter C:\G09W\l103.exe)

 GradGradGradGradGradGradGradGradGradGradGradGradGradGradGradGradGradGrad
 Berny optimization.
 Initialization pass.
                           ----------------------------
                           !    Initial Parameters    !
                           ! (Angstroms and Degrees)  !
 --------------------------                            --------------------------
 ! Name  Definition              Value          Derivative Info.                !
 --------------------------------------------------------------------------------
 ! R1    R(1,2)                  1.0922         estimate D2E/DX2                !
 ! R2    R(1,3)                  1.0922         estimate D2E/DX2                !
 ! R3    R(1,4)                  1.0922         estimate D2E/DX2                !
 ! R4    R(1,5)                  1.0922         estimate D2E/DX2                !
 ! A1    A(2,1,3)              109.4712         estimate D2E/DX2                !
 ! A2    A(2,1,4)              109.4712         estimate D2E/DX2                !
 ! A3    A(2,1,5)              109.4712         estimate D2E/DX2                !
 ! A4    A(3,1,4)              109.4712         estimate D2E/DX2                !
 ! A5    A(3,1,5)              109.4712         estimate D2E/DX2                !
 ! A6    A(4,1,5)              109.4712         estimate D2E/DX2                !
 ! D1    D(2,1,4,3)            120.0            estimate D2E/DX2                !
 ! D2    D(2,1,5,3)           -120.0            estimate D2E/DX2                !
 ! D3    D(2,1,5,4)            120.0            estimate D2E/DX2                !
 ! D4    D(3,1,5,4)           -120.0            estimate D2E/DX2                !
 --------------------------------------------------------------------------------
 Trust Radius=3.00D-01 FncErr=1.00D-07 GrdErr=1.00D-06
 Number of steps in this run=     24 maximum allowed number of steps=    100.
 GradGradGradGradGradGradGradGradGradGradGradGradGradGradGradGradGradGrad

 Leave Link  103 at Thu Mar 19 16:56:31 2026, MaxMem=   536870912 cpu:         0.0
 (Enter C:\G09W\l202.exe)
                          Input orientation:                          
 ---------------------------------------------------------------------
 Center     Atomic      Atomic             Coordinates (Angstroms)
 Number     Number       Type             X           Y           Z
 ---------------------------------------------------------------------
      1          6           0        0.000000    0.000000    0.000000
      2          1           0       -0.675343    0.854123   -0.085361
      3          1           0       -0.394946   -0.835938   -0.581485
      4          1           0        0.084754   -0.293741    1.048538
      5          1           0        0.985535    0.275556   -0.381692
 ---------------------------------------------------------------------
                    Distance matrix (angstroms):
                    1          2          3          4          5
     1  C    0.000000
     2  H    1.092200   0.000000
     3  H    1.092199   1.783555   0.000000
     4  H    1.092199   1.783554   1.783554   0.000000
     5  H    1.092199   1.783555   1.783554   1.783554   0.000000
 Stoichiometry    CH4
 Framework group  TD[O(C),4C3(H)]
 Deg. of freedom     1
 Full point group                 TD      NOp  24
 Largest Abelian subgroup         D2      NOp   4
 Largest concise Abelian subgroup D2      NOp   4
                         Standard orientation:                         
 ---------------------------------------------------------------------
 Center     Atomic      Atomic             Coordinates (Angstroms)
 Number     Number       Type             X           Y           Z
 ---------------------------------------------------------------------
      1          6           0        0.000000    0.000000    0.000000
      2          1           0       -0.630582   -0.630582    0.630582
      3          1           0       -0.630582    0.630582   -0.630582
      4          1           0        0.630582   -0.630582   -0.630582
      5          1           0        0.630582    0.630582    0.630582
 ---------------------------------------------------------------------
 Rotational constants (GHZ):    157.6373055    157.6373055    157.6373055
 Leave Link  202 at Thu Mar 19 16:56:32 2026, MaxMem=   536870912 cpu:         0.0
 (Enter C:\G09W\l301.exe)
 Standard basis: 6-31G(d) (6D, 7F)
 Ernie: Thresh=  0.10000D-02 Tol=  0.10000D-05 Strict=F.
 There are     8 symmetry adapted cartesian basis functions of A   symmetry.
 There are     5 symmetry adapted cartesian basis functions of B1  symmetry.
 There are     5 symmetry adapted cartesian basis functions of B2  symmetry.
 There are     5 symmetry adapted cartesian basis functions of B3  symmetry.
 There are     8 symmetry adapted basis functions of A   symmetry.
 There are     5 symmetry adapted basis functions of B1  symmetry.
 There are     5 symmetry adapted basis functions of B2  symmetry.
 There are     5 symmetry adapted basis functions of B3  symmetry.
    23 basis functions,    44 primitive gaussians,    23 cartesian basis functions
     5 alpha electrons        5 beta electrons
       nuclear repulsion energy        13.4083269277 Hartrees.
 IExCor=  402 DFT=T Ex+Corr=B3LYP ExCW=0 ScaHFX=  0.200000
 ScaDFX=  0.800000  0.720000  1.000000  0.810000 ScalE2=  1.000000  1.000000
 IRadAn=      0 IRanWt=     -1 IRanGd=            0 ICorTp=0 IEmpDi=  4
 NAtoms=    5 NActive=    5 NUniq=    2 SFac= 4.00D+00 NAtFMM=   60 NAOKFM=F Big=F
 Integral buffers will be    131072 words long.
 Raffenetti 2 integral format.
 Two-electron integral symmetry is turned on.
 Leave Link  301 at Thu Mar 19 16:56:34 2026, MaxMem=   536870912 cpu:         0.0
 (Enter C:\G09W\l302.exe)
 NPDir=0 NMtPBC=     1 NCelOv=     1 NCel=       1 NClECP=     1 NCelD=      1
         NCelK=      1 NCelE2=     1 NClLst=     1 CellRange=     0.0.
 One-electron integrals computed using PRISM.
 One-electron integral symmetry used in STVInt
 NBasis=    23 RedAO= T EigKep=  2.35D-02  NBF=     8     5     5     5
 NBsUse=    23 1.00D-06 EigRej= -1.00D+00 NBFU=     8     5     5     5
 Precomputing XC quadrature grid using
 IXCGrd= 4 IRadAn=           0 IRanWt=          -1 IRanGd=           0 AccXCQ= 0.00D+00.
 Generated NRdTot=       0 NPtTot=           0 NUsed=           0 NTot=          32
 NSgBfM=    23    23    23    23    23 MxSgAt=     5 MxSgA2=     5.
 Leave Link  302 at Thu Mar 19 16:56:35 2026, MaxMem=   536870912 cpu:         1.0
 (Enter C:\G09W\l303.exe)
 DipDrv:  MaxL=1.
 Leave Link  303 at Thu Mar 19 16:56:35 2026, MaxMem=   536870912 cpu:         0.0
 (Enter C:\G09W\l401.exe)
 ExpMin= 1.61D-01 ExpMax= 3.05D+03 ExpMxC= 4.57D+02 IAcc=1 IRadAn=         1 AccDes= 0.00D+00
 Harris functional with IExCor=  402 and IRadAn=       1 diagonalized for initial guess.
 HarFok:  IExCor=  402 AccDes= 0.00D+00 IRadAn=         1 IDoV= 1 UseB2=F ITyADJ=14
 ICtDFT=  3500011 ScaDFX=  1.000000  1.000000  1.000000  1.000000
 FoFCou: FMM=F IPFlag=           0 FMFlag=      100000 FMFlg1=           0
         NFxFlg=           0 DoJE=T BraDBF=F KetDBF=T FulRan=T
         wScrn=  0.000000 ICntrl=     500 IOpCl=  0 I1Cent=   200000004 NGrid=           0
         NMat0=    1 NMatS0=      1 NMatT0=    0 NMatD0=    1 NMtDS0=    0 NMtDT0=    0
 Petite list used in FoFCou.
 Harris En= -40.5615904118302    
 JPrj=0 DoOrth=F DoCkMO=F.
 Initial guess orbital symmetries:
       Occupied  (A1) (A1) (T2) (T2) (T2)
       Virtual   (A1) (T2) (T2) (T2) (T2) (T2) (T2) (T2) (T2) (T2)
                 (A1) (A1) (E) (E) (T2) (T2) (T2) (A1)
 The electronic state of the initial guess is 1-A1.
 Leave Link  401 at Thu Mar 19 16:56:36 2026, MaxMem=   536870912 cpu:         0.0
 (Enter C:\G09W\l502.exe)
 Closed shell SCF:
 Using DIIS extrapolation, IDIIS=  1040.
 Integral symmetry usage will be decided dynamically.
 Keep R1 ints in memory in symmetry-blocked form, NReq=919760.
 IVT=       20815 IEndB=       20815 NGot=   536870912 MDV=   536839177
 LenX=   536839177 LenY=   536838207
 Requested convergence on RMS density matrix=1.00D-08 within 128 cycles.
 Requested convergence on MAX density matrix=1.00D-06.
 Requested convergence on             energy=1.00D-06.
 No special actions if energy rises.
 FoFCou: FMM=F IPFlag=           0 FMFlag=           0 FMFlg1=           0
         NFxFlg=           0 DoJE=F BraDBF=F KetDBF=F FulRan=T
         wScrn=  0.000000 ICntrl=     600 IOpCl=  0 I1Cent=           0 NGrid=           0
         NMat0=    1 NMatS0=    276 NMatT0=    0 NMatD0=    1 NMtDS0=    0 NMtDT0=    0
 Petite list used in FoFCou.
 Integral accuracy reduced to 1.0D-05 until final iterations.

 Cycle   1  Pass 0  IDiag  1:
 E= -40.4292128605657    
 DIIS: error= 7.04D-02 at cycle   1 NSaved=   1.
 NSaved= 1 IEnMin= 1 EnMin= -40.4292128605657     IErMin= 1 ErrMin= 7.04D-02
 ErrMax= 7.04D-02  0.00D+00 EMaxC= 1.00D-01 BMatC= 8.22D-02 BMatP= 8.22D-02
 IDIUse=3 WtCom= 2.96D-01 WtEn= 7.04D-01
 Coeff-Com:  0.100D+01
 Coeff-En:   0.100D+01
 Coeff:      0.100D+01
 Gap=     0.431 Goal=   None    Shift=    0.000
 GapD=    0.431 DampG=2.000 DampE=0.500 DampFc=1.0000 IDamp=-1.
 RMSDP=2.23D-02 MaxDP=1.54D-01              OVMax= 1.89D-01

 Cycle   2  Pass 0  IDiag  1:
 E= -40.4082755935216     Delta-E=        0.020937267044 Rises=F Damp=F
 DIIS: error= 7.36D-02 at cycle   2 NSaved=   2.
 NSaved= 2 IEnMin= 1 EnMin= -40.4292128605657     IErMin= 1 ErrMin= 7.04D-02
 ErrMax= 7.36D-02  0.00D+00 EMaxC= 1.00D-01 BMatC= 1.01D-01 BMatP= 8.22D-02
 IDIUse=2 WtCom= 0.00D+00 WtEn= 1.00D+00
 Coeff-En:   0.550D+00 0.450D+00
 Coeff:      0.550D+00 0.450D+00
 Gap=     0.498 Goal=   None    Shift=    0.000
 RMSDP=1.13D-02 MaxDP=7.02D-02 DE= 2.09D-02 OVMax= 9.41D-02

 Cycle   3  Pass 0  IDiag  1:
 E= -40.5181577032336     Delta-E=       -0.109882109712 Rises=F Damp=F
 DIIS: error= 3.71D-03 at cycle   3 NSaved=   3.
 NSaved= 3 IEnMin= 3 EnMin= -40.5181577032336     IErMin= 3 ErrMin= 3.71D-03
 ErrMax= 3.71D-03  0.00D+00 EMaxC= 1.00D-01 BMatC= 2.59D-04 BMatP= 8.22D-02
 IDIUse=3 WtCom= 9.63D-01 WtEn= 3.71D-02
 Coeff-Com:  0.139D-01-0.395D-01 0.103D+01
 Coeff-En:   0.000D+00 0.000D+00 0.100D+01
 Coeff:      0.134D-01-0.380D-01 0.102D+01
 Gap=     0.507 Goal=   None    Shift=    0.000
 RMSDP=5.02D-04 MaxDP=3.96D-03 DE=-1.10D-01 OVMax= 4.45D-03

 Cycle   4  Pass 0  IDiag  1:
 E= -40.5184125428822     Delta-E=       -0.000254839649 Rises=F Damp=F
 DIIS: error= 3.74D-05 at cycle   4 NSaved=   4.
 NSaved= 4 IEnMin= 4 EnMin= -40.5184125428822     IErMin= 4 ErrMin= 3.74D-05
 ErrMax= 3.74D-05  0.00D+00 EMaxC= 1.00D-01 BMatC= 2.42D-08 BMatP= 2.59D-04
 IDIUse=1 WtCom= 1.00D+00 WtEn= 0.00D+00
 Coeff-Com:  0.138D-02-0.933D-03 0.380D-01 0.962D+00
 Coeff:      0.138D-02-0.933D-03 0.380D-01 0.962D+00
 Gap=     0.507 Goal=   None    Shift=    0.000
 RMSDP=5.58D-06 MaxDP=2.65D-05 DE=-2.55D-04 OVMax= 4.91D-05

 Initial convergence to 1.0D-05 achieved.  Increase integral accuracy.
 Cycle   5  Pass 1  IDiag  1:
 E= -40.5183862714360     Delta-E=        0.000026271446 Rises=F Damp=F
 DIIS: error= 8.50D-06 at cycle   1 NSaved=   1.
 NSaved= 1 IEnMin= 1 EnMin= -40.5183862714360     IErMin= 1 ErrMin= 8.50D-06
 ErrMax= 8.50D-06  0.00D+00 EMaxC= 1.00D-01 BMatC= 3.49D-09 BMatP= 3.49D-09
 IDIUse=1 WtCom= 1.00D+00 WtEn= 0.00D+00
 Coeff-Com:  0.100D+01
 Coeff:      0.100D+01
 Gap=     0.507 Goal=   None    Shift=    0.000
 RMSDP=5.58D-06 MaxDP=2.65D-05 DE= 2.63D-05 OVMax= 2.95D-05

 Cycle   6  Pass 1  IDiag  1:
 E= -40.5183862766436     Delta-E=       -0.000000005208 Rises=F Damp=F
 DIIS: error= 5.48D-06 at cycle   2 NSaved=   2.
 NSaved= 2 IEnMin= 2 EnMin= -40.5183862766436     IErMin= 2 ErrMin= 5.48D-06
 ErrMax= 5.48D-06  0.00D+00 EMaxC= 1.00D-01 BMatC= 5.46D-10 BMatP= 3.49D-09
 IDIUse=1 WtCom= 1.00D+00 WtEn= 0.00D+00
 Coeff-Com:  0.226D+00 0.774D+00
 Coeff:      0.226D+00 0.774D+00
 Gap=     0.507 Goal=   None    Shift=    0.000
 RMSDP=1.59D-06 MaxDP=9.90D-06 DE=-5.21D-09 OVMax= 1.28D-05

 Cycle   7  Pass 1  IDiag  1:
 E= -40.5183862769918     Delta-E=       -0.000000000348 Rises=F Damp=F
 DIIS: error= 3.83D-06 at cycle   3 NSaved=   3.
 NSaved= 3 IEnMin= 3 EnMin= -40.5183862769918     IErMin= 3 ErrMin= 3.83D-06
 ErrMax= 3.83D-06  0.00D+00 EMaxC= 1.00D-01 BMatC= 2.73D-10 BMatP= 5.46D-10
 IDIUse=1 WtCom= 1.00D+00 WtEn= 0.00D+00
 Coeff-Com: -0.311D-01 0.401D+00 0.630D+00
 Coeff:     -0.311D-01 0.401D+00 0.630D+00
 Gap=     0.507 Goal=   None    Shift=    0.000
 RMSDP=4.84D-07 MaxDP=4.17D-06 DE=-3.48D-10 OVMax= 4.44D-06

 Cycle   8  Pass 1  IDiag  1:
 E= -40.5183862772583     Delta-E=       -0.000000000267 Rises=F Damp=F
 DIIS: error= 4.01D-08 at cycle   4 NSaved=   4.
 NSaved= 4 IEnMin= 4 EnMin= -40.5183862772583     IErMin= 4 ErrMin= 4.01D-08
 ErrMax= 4.01D-08  0.00D+00 EMaxC= 1.00D-01 BMatC= 2.11D-14 BMatP= 2.73D-10
 IDIUse=1 WtCom= 1.00D+00 WtEn= 0.00D+00
 Coeff-Com: -0.183D-02 0.680D-02 0.755D-02 0.987D+00
 Coeff:     -0.183D-02 0.680D-02 0.755D-02 0.987D+00
 Gap=     0.507 Goal=   None    Shift=    0.000
 RMSDP=8.06D-09 MaxDP=3.36D-08 DE=-2.67D-10 OVMax= 7.05D-08

 SCF Done:  E(RB3LYP) =  -40.5183862773     A.U. after    8 cycles
            NFock=  8  Conv=0.81D-08     -V/T= 2.0110
 KE= 4.007652742838D+01 PE=-1.198599680846D+02 EE= 2.585672745121D+01
 Leave Link  502 at Thu Mar 19 16:56:38 2026, MaxMem=   536870912 cpu:         1.0
 (Enter C:\G09W\l601.exe)
 Copying SCF densities to generalized density rwf, IOpCl= 0 IROHF=0.

 **********************************************************************

            Population analysis using the SCF density.

 **********************************************************************

 Orbital symmetries:
       Occupied  (A1) (A1) (T2) (T2) (T2)
       Virtual   (A1) (T2) (T2) (T2) (T2) (T2) (T2) (T2) (T2) (T2)
                 (A1) (A1) (E) (E) (T2) (T2) (T2) (A1)
 The electronic state is 1-A1.
 Alpha  occ. eigenvalues --  -10.16650  -0.69062  -0.38924  -0.38924  -0.38924
 Alpha virt. eigenvalues --    0.11818   0.17687   0.17687   0.17687   0.53293
 Alpha virt. eigenvalues --    0.53293   0.53293   0.89854   0.89854   0.89854
 Alpha virt. eigenvalues --    0.94905   1.10016   1.65631   1.65631   2.24506
 Alpha virt. eigenvalues --    2.24506   2.24506   4.17995
          Condensed to atoms (all electrons):
               1          2          3          4          5
     1  C    5.092800   0.383978   0.383978   0.383978   0.383978
     2  H    0.383978   0.539288  -0.026814  -0.026814  -0.026814
     3  H    0.383978  -0.026814   0.539288  -0.026814  -0.026814
     4  H    0.383978  -0.026814  -0.026814   0.539288  -0.026814
     5  H    0.383978  -0.026814  -0.026814  -0.026814   0.539288
 Mulliken charges:
               1
     1  C   -0.628711
     2  H    0.157178
     3  H    0.157178
     4  H    0.157178
     5  H    0.157178
 Sum of Mulliken charges =   0.00000
 Mulliken charges with hydrogens summed into heavy atoms:
               1
     1  C    0.000000
 Electronic spatial extent (au):  <R**2>=             35.4374
 Charge=              0.0000 electrons
 Dipole moment (field-independent basis, Debye):
    X=              0.0000    Y=              0.0000    Z=              0.0000  Tot=              0.0000
 Quadrupole moment (field-independent basis, Debye-Ang):
   XX=             -8.2485   YY=             -8.2485   ZZ=             -8.2485
   XY=              0.0000   XZ=              0.0000   YZ=              0.0000
 Traceless Quadrupole moment (field-independent basis, Debye-Ang):
   XX=              0.0000   YY=              0.0000   ZZ=              0.0000
   XY=              0.0000   XZ=              0.0000   YZ=              0.0000
 Octapole moment (field-independent basis, Debye-Ang**2):
  XXX=              0.0000  YYY=              0.0000  ZZZ=              0.0000  XYY=              0.0000
  XXY=              0.0000  XXZ=              0.0000  XZZ=              0.0000  YZZ=              0.0000
  YYZ=              0.0000  XYZ=              0.6685
 Hexadecapole moment (field-independent basis, Debye-Ang**3):
 XXXX=            -15.7259 YYYY=            -15.7259 ZZZZ=            -15.7259 XXXY=              0.0000
 XXXZ=              0.0000 YYYX=              0.0000 YYYZ=              0.0000 ZZZX=              0.0000
 ZZZY=              0.0000 XXYY=             -4.7992 XXZZ=             -4.7992 YYZZ=             -4.7992
 XXYZ=              0.0000 YYXZ=              0.0000 ZZXY=              0.0000
 N-N= 1.340832692774D+01 E-N=-1.198599687859D+02  KE= 4.007652742838D+01
 Symmetry A    KE= 3.429255030919D+01
 Symmetry B1   KE= 1.927992373064D+00
 Symmetry B2   KE= 1.927992373064D+00
 Symmetry B3   KE= 1.927992373064D+00
 No NMR shielding tensors so no spin-rotation constants.
 Leave Link  601 at Thu Mar 19 16:56:38 2026, MaxMem=   536870912 cpu:         0.0
 (Enter C:\G09W\l701.exe)
 Compute integral first derivatives.
 ... and contract with generalized density number  0.
 Leave Link  701 at Thu Mar 19 16:56:39 2026, MaxMem=   536870912 cpu:         1.0
 (Enter C:\G09W\l702.exe)
 L702 exits ... SP integral derivatives will be done elsewhere.
 Leave Link  702 at Thu Mar 19 16:56:40 2026, MaxMem=   536870912 cpu:         0.0
 (Enter C:\G09W\l703.exe)
 Compute integral first derivatives, UseDBF=F ICtDFT=           0.
 Integral derivatives from FoFJK, PRISM(SPDF).
 Calling FoFJK, ICntrl=      2127 FMM=F ISym2X=1 I1Cent= 0 IOpClX= 0 NMat=1 NMatS=1 NMatT=0.
 FoFJK:  IHMeth= 1 ICntrl=    2127 DoSepK=F KAlg= 0 I1Cent=   0 FoldK=F
 IRaf=         0 NMat=   1 IRICut=       1 DoRegI=T DoRafI=F ISym2E= 1.
 FoFCou: FMM=F IPFlag=           0 FMFlag=      100000 FMFlg1=         800
         NFxFlg=           0 DoJE=F BraDBF=F KetDBF=F FulRan=T
         wScrn=  0.000000 ICntrl=    2127 IOpCl=  0 I1Cent=           0 NGrid=           0
         NMat0=    1 NMatS0=      1 NMatT0=    0 NMatD0=    1 NMtDS0=    0 NMtDT0=    0
 Petite list used in FoFCou.
 Leave Link  703 at Thu Mar 19 16:56:42 2026, MaxMem=   536870912 cpu:         1.0
 (Enter C:\G09W\l716.exe)
 Dipole        = 4.44089210D-16 4.44089210D-16-4.44089210D-16
 ***** Axes restored to original set *****
 -------------------------------------------------------------------
 Center     Atomic                   Forces (Hartrees/Bohr)
 Number     Number              X              Y              Z
 -------------------------------------------------------------------
      1        6           0.000000000    0.000000000    0.000000000
      2        1          -0.000444172    0.000561755   -0.000056142
      3        1          -0.000259756   -0.000549796   -0.000382442
      4        1           0.000055742   -0.000193193    0.000689623
      5        1           0.000648185    0.000181233   -0.000251038
 -------------------------------------------------------------------
 Cartesian Forces:  Max     0.000689623 RMS     0.000370948
 Leave Link  716 at Thu Mar 19 16:56:42 2026, MaxMem=   536870912 cpu:         0.0
 (Enter C:\G09W\l103.exe)

 GradGradGradGradGradGradGradGradGradGradGradGradGradGradGradGradGradGrad
 Berny optimization.
 FormGI is forming the generalized inverse of G from B-inverse, IUseBI=4.
 Internal  Forces:  Max     0.000718338 RMS     0.000383968
 Search for a local minimum.
 Step number   1 out of a maximum of   24
 All quantities printed in internal units (Hartrees-Bohrs-Radians)
 RMS Force = .38397D-03 SwitMx=.10000D-02 MixMth= 2
 Mixed Optimization -- En-DIIS/RFO-DIIS
 Second derivative matrix not updated -- first step.
 The second derivative matrix:
                          R1        R2        R3        R4        A1
           R1           0.34560
           R2           0.00000   0.34560
           R3           0.00000   0.00000   0.34560
           R4           0.00000   0.00000   0.00000   0.34560
           A1           0.00000   0.00000   0.00000   0.00000   0.16000
           A2           0.00000   0.00000   0.00000   0.00000   0.00000
           A3           0.00000   0.00000   0.00000   0.00000   0.00000
           A4           0.00000   0.00000   0.00000   0.00000   0.00000
           A5           0.00000   0.00000   0.00000   0.00000   0.00000
           A6           0.00000   0.00000   0.00000   0.00000   0.00000
           D1           0.00000   0.00000   0.00000   0.00000   0.00000
           D2           0.00000   0.00000   0.00000   0.00000   0.00000
           D3           0.00000   0.00000   0.00000   0.00000   0.00000
           D4           0.00000   0.00000   0.00000   0.00000   0.00000
                          A2        A3        A4        A5        A6
           A2           0.16000
           A3           0.00000   0.16000
           A4           0.00000   0.00000   0.16000
           A5           0.00000   0.00000   0.00000   0.16000
           A6           0.00000   0.00000   0.00000   0.00000   0.16000
           D1           0.00000   0.00000   0.00000   0.00000   0.00000
           D2           0.00000   0.00000   0.00000   0.00000   0.00000
           D3           0.00000   0.00000   0.00000   0.00000   0.00000
           D4           0.00000   0.00000   0.00000   0.00000   0.00000
                          D1        D2        D3        D4
           D1           0.00230
           D2           0.00000   0.00230
           D3           0.00000   0.00000   0.00230
           D4           0.00000   0.00000   0.00000   0.00230
 ITU=  0
     Eigenvalues ---    0.05082   0.05715   0.08641   0.16000   0.16000
     Eigenvalues ---    0.34560   0.34560   0.34560   0.34560
 RFO step:  Lambda=-5.97240068D-06 EMin= 5.08230769D-02
 Linear search not attempted -- first point.
 Iteration  1 RMS(Cart)=  0.00111101 RMS(Int)=  0.00000000
 Iteration  2 RMS(Cart)=  0.00000000 RMS(Int)=  0.00000000
 ITry= 1 IFail=0 DXMaxC= 2.00D-03 DCOld= 1.00D+10 DXMaxT= 3.00D-01 DXLimC= 3.00D+00 Rises=F
 ClnCor:  largest displacement from symmetrization is 1.28D-14 for atom     3.
 Variable       Old X    -DE/DX   Delta X   Delta X   Delta X     New X
                                 (Linear)    (Quad)   (Total)
    R1        2.06396   0.00072   0.00000   0.00208   0.00208   2.06604
    R2        2.06396   0.00072   0.00000   0.00208   0.00208   2.06604
    R3        2.06396   0.00072   0.00000   0.00208   0.00208   2.06604
    R4        2.06396   0.00072   0.00000   0.00208   0.00208   2.06604
    A1        1.91063   0.00000   0.00000   0.00000   0.00000   1.91063
    A2        1.91063   0.00000   0.00000   0.00000   0.00000   1.91063
    A3        1.91063   0.00000   0.00000   0.00000   0.00000   1.91063
    A4        1.91063   0.00000   0.00000   0.00000   0.00000   1.91063
    A5        1.91063   0.00000   0.00000   0.00000   0.00000   1.91063
    A6        1.91063   0.00000   0.00000   0.00000   0.00000   1.91063
    D1        2.09440   0.00000   0.00000   0.00000   0.00000   2.09440
    D2       -2.09440   0.00000   0.00000   0.00000   0.00000  -2.09440
    D3        2.09440   0.00000   0.00000   0.00000   0.00000   2.09440
    D4       -2.09440   0.00000   0.00000   0.00000   0.00000  -2.09440
         Item               Value     Threshold  Converged?
 Maximum Force            0.000718     0.000450     NO 
 RMS     Force            0.000384     0.000300     NO 
 Maximum Displacement     0.001995     0.001800     NO 
 RMS     Displacement     0.001111     0.001200     YES
 Predicted change in Energy=-2.986200D-06
 Lowest energy point so far.  Saving SCF results.
 GradGradGradGradGradGradGradGradGradGradGradGradGradGradGradGradGradGrad

 Leave Link  103 at Thu Mar 19 16:56:42 2026, MaxMem=   536870912 cpu:         0.0
 (Enter C:\G09W\l202.exe)
                          Input orientation:                          
 ---------------------------------------------------------------------
 Center     Atomic      Atomic             Coordinates (Angstroms)
 Number     Number       Type             X           Y           Z
 ---------------------------------------------------------------------
      1          6           0        0.000000    0.000000    0.000000
      2          1           0       -0.676023    0.854983   -0.085448
      3          1           0       -0.395344   -0.836780   -0.582071
      4          1           0        0.084839   -0.294037    1.049595
      5          1           0        0.986528    0.275834   -0.382077
 ---------------------------------------------------------------------
                    Distance matrix (angstroms):
                    1          2          3          4          5
     1  C    0.000000
     2  H    1.093300   0.000000
     3  H    1.093300   1.785351   0.000000
     4  H    1.093300   1.785351   1.785351   0.000000
     5  H    1.093300   1.785351   1.785351   1.785351   0.000000
 Stoichiometry    CH4
 Framework group  TD[O(C),4C3(H)]
 Deg. of freedom     1
 Full point group                 TD      NOp  24
 RotChk:  IX=0 Diff= 2.45D+00
 Largest Abelian subgroup         D2      NOp   4
 Largest concise Abelian subgroup D2      NOp   4
                         Standard orientation:                         
 ---------------------------------------------------------------------
 Center     Atomic      Atomic             Coordinates (Angstroms)
 Number     Number       Type             X           Y           Z
 ---------------------------------------------------------------------
      1          6           0        0.000000    0.000000    0.000000
      2          1           0        0.631217    0.631217    0.631217
      3          1           0       -0.631217   -0.631217    0.631217
      4          1           0        0.631217   -0.631217   -0.631217
      5          1           0       -0.631217    0.631217   -0.631217
 ---------------------------------------------------------------------
 Rotational constants (GHZ):    157.3202869    157.3202869    157.3202869
 Leave Link  202 at Thu Mar 19 16:56:43 2026, MaxMem=   536870912 cpu:         0.0
 (Enter C:\G09W\l301.exe)
 Standard basis: 6-31G(d) (6D, 7F)
 Ernie: Thresh=  0.10000D-02 Tol=  0.10000D-05 Strict=F.
 There are     8 symmetry adapted cartesian basis functions of A   symmetry.
 There are     5 symmetry adapted cartesian basis functions of B1  symmetry.
 There are     5 symmetry adapted cartesian basis functions of B2  symmetry.
 There are     5 symmetry adapted cartesian basis functions of B3  symmetry.
 There are     8 symmetry adapted basis functions of A   symmetry.
 There are     5 symmetry adapted basis functions of B1  symmetry.
 There are     5 symmetry adapted basis functions of B2  symmetry.
 There are     5 symmetry adapted basis functions of B3  symmetry.
    23 basis functions,    44 primitive gaussians,    23 cartesian basis functions
     5 alpha electrons        5 beta electrons
       nuclear repulsion energy        13.3948376463 Hartrees.
 IExCor=  402 DFT=T Ex+Corr=B3LYP ExCW=0 ScaHFX=  0.200000
 ScaDFX=  0.800000  0.720000  1.000000  0.810000 ScalE2=  1.000000  1.000000
 IRadAn=      0 IRanWt=     -1 IRanGd=            0 ICorTp=0 IEmpDi=  4
 NAtoms=    5 NActive=    5 NUniq=    2 SFac= 4.00D+00 NAtFMM=   60 NAOKFM=F Big=F
 Integral buffers will be    131072 words long.
 Raffenetti 2 integral format.
 Two-electron integral symmetry is turned on.
 Leave Link  301 at Thu Mar 19 16:56:43 2026, MaxMem=   536870912 cpu:         0.0
 (Enter C:\G09W\l302.exe)
 NPDir=0 NMtPBC=     1 NCelOv=     1 NCel=       1 NClECP=     1 NCelD=      1
         NCelK=      1 NCelE2=     1 NClLst=     1 CellRange=     0.0.
 One-electron integrals computed using PRISM.
 One-electron integral symmetry used in STVInt
 NBasis=    23 RedAO= T EigKep=  2.35D-02  NBF=     8     5     5     5
 NBsUse=    23 1.00D-06 EigRej= -1.00D+00 NBFU=     8     5     5     5
 Precomputing XC quadrature grid using
 IXCGrd= 4 IRadAn=           0 IRanWt=          -1 IRanGd=           0 AccXCQ= 0.00D+00.
 Generated NRdTot=       0 NPtTot=           0 NUsed=           0 NTot=          32
 NSgBfM=    23    23    23    23    23 MxSgAt=     5 MxSgA2=     5.
 Leave Link  302 at Thu Mar 19 16:56:44 2026, MaxMem=   536870912 cpu:         1.0
 (Enter C:\G09W\l303.exe)
 DipDrv:  MaxL=1.
 Leave Link  303 at Thu Mar 19 16:56:44 2026, MaxMem=   536870912 cpu:         0.0
 (Enter C:\G09W\l401.exe)
 Initial guess from the checkpoint file:  "methane_rdkit.chk"
 B after Tr=     0.000000    0.000000    0.000000
         Rot=    0.500000    0.500000   -0.500000   -0.500000 Ang= 120.00 deg.
 Guess basis will be translated and rotated to current coordinates.
 JPrj=2 DoOrth=T DoCkMO=T.
 Initial guess orbital symmetries:
       Occupied  (A1) (A1) (T2) (T2) (T2)
       Virtual   (A1) (E) (E) (A1) (A1) (A1) (T2) (T2) (T2) (T2)
                 (T2) (T2) (T2) (T2) (T2) (T2) (T2) (T2)
 The electronic state of the initial guess is 1-A1.
 Leave Link  401 at Thu Mar 19 16:56:44 2026, MaxMem=   536870912 cpu:         0.0
 (Enter C:\G09W\l502.exe)
 Closed shell SCF:
 Using DIIS extrapolation, IDIIS=  1040.
 Integral symmetry usage will be decided dynamically.
 Keep R1 ints in memory in symmetry-blocked form, NReq=919760.
 IVT=       20815 IEndB=       20815 NGot=   536870912 MDV=   536839177
 LenX=   536839177 LenY=   536838207
 Requested convergence on RMS density matrix=1.00D-08 within 128 cycles.
 Requested convergence on MAX density matrix=1.00D-06.
 Requested convergence on             energy=1.00D-06.
 No special actions if energy rises.
 FoFCou: FMM=F IPFlag=           0 FMFlag=           0 FMFlg1=           0
         NFxFlg=           0 DoJE=F BraDBF=F KetDBF=F FulRan=T
         wScrn=  0.000000 ICntrl=     600 IOpCl=  0 I1Cent=           0 NGrid=           0
         NMat0=    1 NMatS0=    276 NMatT0=    0 NMatD0=    1 NMtDS0=    0 NMtDT0=    0
 Petite list used in FoFCou.

 Cycle   1  Pass 1  IDiag  1:
 E= -40.5183885175268    
 DIIS: error= 1.66D-04 at cycle   1 NSaved=   1.
 NSaved= 1 IEnMin= 1 EnMin= -40.5183885175268     IErMin= 1 ErrMin= 1.66D-04
 ErrMax= 1.66D-04  0.00D+00 EMaxC= 1.00D-01 BMatC= 5.25D-07 BMatP= 5.25D-07
 IDIUse=3 WtCom= 9.98D-01 WtEn= 1.66D-03
 Coeff-Com:  0.100D+01
 Coeff-En:   0.100D+01
 Coeff:      0.100D+01
 Gap=     0.928 Goal=   None    Shift=    0.000
 RMSDP=5.02D-05 MaxDP=3.67D-04              OVMax= 4.24D-04

 Cycle   2  Pass 1  IDiag  1:
 E= -40.5183886306404     Delta-E=       -0.000000113114 Rises=F Damp=F
 DIIS: error= 1.70D-04 at cycle   2 NSaved=   2.
 NSaved= 2 IEnMin= 2 EnMin= -40.5183886306404     IErMin= 1 ErrMin= 1.66D-04
 ErrMax= 1.70D-04  0.00D+00 EMaxC= 1.00D-01 BMatC= 5.23D-07 BMatP= 5.25D-07
 IDIUse=3 WtCom= 9.98D-01 WtEn= 1.70D-03
 Coeff-Com:  0.499D+00 0.501D+00
 Coeff-En:   0.443D+00 0.557D+00
 Coeff:      0.499D+00 0.501D+00
 Gap=     0.507 Goal=   None    Shift=    0.000
 RMSDP=2.66D-05 MaxDP=1.97D-04 DE=-1.13D-07 OVMax= 2.31D-04

 Cycle   3  Pass 1  IDiag  1:
 E= -40.5183891607206     Delta-E=       -0.000000530080 Rises=F Damp=F
 DIIS: error= 1.43D-05 at cycle   3 NSaved=   3.
 NSaved= 3 IEnMin= 3 EnMin= -40.5183891607206     IErMin= 3 ErrMin= 1.43D-05
 ErrMax= 1.43D-05  0.00D+00 EMaxC= 1.00D-01 BMatC= 4.11D-09 BMatP= 5.23D-07
 IDIUse=1 WtCom= 1.00D+00 WtEn= 0.00D+00
 Coeff-Com:  0.119D-01 0.872D-01 0.901D+00
 Coeff:      0.119D-01 0.872D-01 0.901D+00
 Gap=     0.507 Goal=   None    Shift=    0.000
 RMSDP=1.82D-06 MaxDP=1.66D-05 DE=-5.30D-07 OVMax= 1.82D-05

 Cycle   4  Pass 1  IDiag  1:
 E= -40.5183891646467     Delta-E=       -0.000000003926 Rises=F Damp=F
 DIIS: error= 4.80D-07 at cycle   4 NSaved=   4.
 NSaved= 4 IEnMin= 4 EnMin= -40.5183891646467     IErMin= 4 ErrMin= 4.80D-07
 ErrMax= 4.80D-07  0.00D+00 EMaxC= 1.00D-01 BMatC= 3.46D-12 BMatP= 4.11D-09
 IDIUse=1 WtCom= 1.00D+00 WtEn= 0.00D+00
 Coeff-Com: -0.188D-02 0.126D-02 0.633D-02 0.994D+00
 Coeff:     -0.188D-02 0.126D-02 0.633D-02 0.994D+00
 Gap=     0.507 Goal=   None    Shift=    0.000
 RMSDP=9.06D-08 MaxDP=5.78D-07 DE=-3.93D-09 OVMax= 7.56D-07

 Cycle   5  Pass 1  IDiag  1:
 E= -40.5183891646512     Delta-E=       -0.000000000005 Rises=F Damp=F
 DIIS: error= 3.19D-08 at cycle   5 NSaved=   5.
 NSaved= 5 IEnMin= 5 EnMin= -40.5183891646512     IErMin= 5 ErrMin= 3.19D-08
 ErrMax= 3.19D-08  0.00D+00 EMaxC= 1.00D-01 BMatC= 1.52D-14 BMatP= 3.46D-12
 IDIUse=1 WtCom= 1.00D+00 WtEn= 0.00D+00
 Coeff-Com:  0.619D-04-0.255D-03-0.546D-03-0.380D-01 0.104D+01
 Coeff:      0.619D-04-0.255D-03-0.546D-03-0.380D-01 0.104D+01
 Gap=     0.507 Goal=   None    Shift=    0.000
 RMSDP=4.14D-09 MaxDP=4.16D-08 DE=-4.55D-12 OVMax= 4.70D-08

 SCF Done:  E(RB3LYP) =  -40.5183891647     A.U. after    5 cycles
            NFock=  5  Conv=0.41D-08     -V/T= 2.0112
 KE= 4.007089076772D+01 PE=-1.198290823578D+02 EE= 2.584496477914D+01
 Leave Link  502 at Thu Mar 19 16:56:45 2026, MaxMem=   536870912 cpu:         1.0
 (Enter C:\G09W\l701.exe)
 Compute integral first derivatives.
 ... and contract with generalized density number  0.
 Leave Link  701 at Thu Mar 19 16:56:45 2026, MaxMem=   536870912 cpu:         0.0
 (Enter C:\G09W\l702.exe)
 L702 exits ... SP integral derivatives will be done elsewhere.
 Leave Link  702 at Thu Mar 19 16:56:45 2026, MaxMem=   536870912 cpu:         0.0
 (Enter C:\G09W\l703.exe)
 Compute integral first derivatives, UseDBF=F ICtDFT=           0.
 Integral derivatives from FoFJK, PRISM(SPDF).
 Calling FoFJK, ICntrl=      2127 FMM=F ISym2X=1 I1Cent= 0 IOpClX= 0 NMat=1 NMatS=1 NMatT=0.
 FoFJK:  IHMeth= 1 ICntrl=    2127 DoSepK=F KAlg= 0 I1Cent=   0 FoldK=F
 IRaf=         0 NMat=   1 IRICut=       1 DoRegI=T DoRafI=F ISym2E= 1.
 FoFCou: FMM=F IPFlag=           0 FMFlag=      100000 FMFlg1=         800
         NFxFlg=           0 DoJE=F BraDBF=F KetDBF=F FulRan=T
         wScrn=  0.000000 ICntrl=    2127 IOpCl=  0 I1Cent=           0 NGrid=           0
         NMat0=    1 NMatS0=      1 NMatT0=    0 NMatD0=    1 NMtDS0=    0 NMtDT0=    0
 Petite list used in FoFCou.
 Leave Link  703 at Thu Mar 19 16:56:46 2026, MaxMem=   536870912 cpu:         1.0
 (Enter C:\G09W\l716.exe)
 Dipole        = 2.22044605D-16-6.66133815D-16-4.44089210D-16
 ***** Axes restored to original set *****
 -------------------------------------------------------------------
 Center     Atomic                   Forces (Hartrees/Bohr)
 Number     Number              X              Y              Z
 -------------------------------------------------------------------
      1        6           0.000000000    0.000000000    0.000000000
      2        1           0.000014196   -0.000017954    0.000001794
      3        1           0.000008302    0.000017572    0.000012223
      4        1          -0.000001782    0.000006175   -0.000022041
      5        1          -0.000020716   -0.000005792    0.000008023
 -------------------------------------------------------------------
 Cartesian Forces:  Max     0.000022041 RMS     0.000011856
 Leave Link  716 at Thu Mar 19 16:56:46 2026, MaxMem=   536870912 cpu:         0.0
 (Enter C:\G09W\l103.exe)

 GradGradGradGradGradGradGradGradGradGradGradGradGradGradGradGradGradGrad
 Berny optimization.
 Using GEDIIS/GDIIS optimizer.
 FormGI is forming the generalized inverse of G from B-inverse, IUseBI=4.
 Internal  Forces:  Max     0.000022958 RMS     0.000012272
 Search for a local minimum.
 Step number   2 out of a maximum of   24
 All quantities printed in internal units (Hartrees-Bohrs-Radians)
 RMS Force = .12272D-04 SwitMx=.10000D-02 MixMth= 2
 Mixed Optimization -- En-DIIS/RFO-DIIS
 Swapping is turned off.
 Update second derivatives using D2CorX and points    1    2
 DE= -2.89D-06 DEPred=-2.99D-06 R= 9.67D-01
 TightC=F SS=  1.41D+00  RLast= 4.16D-03 DXNew= 5.0454D-01 1.2471D-02
 Trust test= 9.67D-01 RLast= 4.16D-03 DXMaxT set to 3.00D-01
 The second derivative matrix:
                          R1        R2        R3        R4        A1
           R1           0.34836
           R2           0.00276   0.34836
           R3           0.00276   0.00276   0.34836
           R4           0.00276   0.00276   0.00276   0.34836
           A1           0.00000   0.00000   0.00000   0.00000   0.16000
           A2           0.00000   0.00000   0.00000   0.00000   0.00000
           A3           0.00000   0.00000   0.00000   0.00000   0.00000
           A4           0.00000   0.00000   0.00000   0.00000   0.00000
           A5           0.00000   0.00000   0.00000   0.00000   0.00000
           A6           0.00000   0.00000   0.00000   0.00000   0.00000
           D1           0.00000   0.00000   0.00000   0.00000   0.00000
           D2           0.00000   0.00000   0.00000   0.00000   0.00000
           D3           0.00000   0.00000   0.00000   0.00000   0.00000
           D4           0.00000   0.00000   0.00000   0.00000   0.00000
                          A2        A3        A4        A5        A6
           A2           0.16000
           A3           0.00000   0.16000
           A4           0.00000   0.00000   0.16000
           A5           0.00000   0.00000   0.00000   0.16000
           A6           0.00000   0.00000   0.00000   0.00000   0.16000
           D1           0.00000   0.00000   0.00000   0.00000   0.00000
           D2           0.00000   0.00000   0.00000   0.00000   0.00000
           D3           0.00000   0.00000   0.00000   0.00000   0.00000
           D4           0.00000   0.00000   0.00000   0.00000   0.00000
                          D1        D2        D3        D4
           D1           0.00230
           D2           0.00000   0.00230
           D3           0.00000   0.00000   0.00230
           D4           0.00000   0.00000   0.00000   0.00230
 ITU=  1  0
     Eigenvalues ---    0.05082   0.05715   0.08641   0.16000   0.16000
     Eigenvalues ---    0.34560   0.34560   0.34560   0.35665
 En-DIIS/RFO-DIIS IScMMF=        0 using points:     2    1
 RFO step:  Lambda= 0.00000000D+00.
 NNeg= 0 NP= 2 Switch=  2.50D-03 Rises=F DC=  2.89D-06 SmlDif=  1.00D-05
 RMS Error=  0.2054887559D-04 NUsed= 2 EDIIS=F
 DidBck=F Rises=F RFO-DIIS coefs:    0.96903    0.03097
 Iteration  1 RMS(Cart)=  0.00003441 RMS(Int)=  0.00000000
 Iteration  2 RMS(Cart)=  0.00000000 RMS(Int)=  0.00000000
 ITry= 1 IFail=0 DXMaxC= 6.18D-05 DCOld= 1.00D+10 DXMaxT= 3.00D-01 DXLimC= 3.00D+00 Rises=F
 ClnCor:  largest displacement from symmetrization is 2.11D-14 for atom     4.
 Variable       Old X    -DE/DX   Delta X   Delta X   Delta X     New X
                                 (Linear)    (Quad)   (Total)
    R1        2.06604  -0.00002  -0.00006   0.00000  -0.00006   2.06597
    R2        2.06604  -0.00002  -0.00006   0.00000  -0.00006   2.06597
    R3        2.06604  -0.00002  -0.00006   0.00000  -0.00006   2.06597
    R4        2.06604  -0.00002  -0.00006   0.00000  -0.00006   2.06597
    A1        1.91063   0.00000   0.00000   0.00000   0.00000   1.91063
    A2        1.91063   0.00000   0.00000   0.00000   0.00000   1.91063
    A3        1.91063   0.00000   0.00000   0.00000   0.00000   1.91063
    A4        1.91063   0.00000   0.00000   0.00000   0.00000   1.91063
    A5        1.91063   0.00000   0.00000   0.00000   0.00000   1.91063
    A6        1.91063   0.00000   0.00000   0.00000   0.00000   1.91063
    D1        2.09440   0.00000   0.00000   0.00000   0.00000   2.09440
    D2       -2.09440   0.00000   0.00000   0.00000   0.00000  -2.09440
    D3        2.09440   0.00000   0.00000   0.00000   0.00000   2.09440
    D4       -2.09440   0.00000   0.00000   0.00000   0.00000  -2.09440
         Item               Value     Threshold  Converged?
 Maximum Force            0.000023     0.000450     YES
 RMS     Force            0.000012     0.000300     YES
 Maximum Displacement     0.000062     0.001800     YES
 RMS     Displacement     0.000034     0.001200     YES
 Predicted change in Energy=-2.955794D-09
 Optimization completed.
    -- Stationary point found.
                           ----------------------------
                           !   Optimized Parameters   !
                           ! (Angstroms and Degrees)  !
 --------------------------                            --------------------------
 ! Name  Definition              Value          Derivative Info.                !
 --------------------------------------------------------------------------------
 ! R1    R(1,2)                  1.0933         -DE/DX =    0.0                 !
 ! R2    R(1,3)                  1.0933         -DE/DX =    0.0                 !
 ! R3    R(1,4)                  1.0933         -DE/DX =    0.0                 !
 ! R4    R(1,5)                  1.0933         -DE/DX =    0.0                 !
 ! A1    A(2,1,3)              109.4712         -DE/DX =    0.0                 !
 ! A2    A(2,1,4)              109.4712         -DE/DX =    0.0                 !
 ! A3    A(2,1,5)              109.4712         -DE/DX =    0.0                 !
 ! A4    A(3,1,4)              109.4712         -DE/DX =    0.0                 !
 ! A5    A(3,1,5)              109.4712         -DE/DX =    0.0                 !
 ! A6    A(4,1,5)              109.4712         -DE/DX =    0.0                 !
 ! D1    D(2,1,4,3)            120.0            -DE/DX =    0.0                 !
 ! D2    D(2,1,5,3)           -120.0            -DE/DX =    0.0                 !
 ! D3    D(2,1,5,4)            120.0            -DE/DX =    0.0                 !
 ! D4    D(3,1,5,4)           -120.0            -DE/DX =    0.0                 !
 --------------------------------------------------------------------------------
 Lowest energy point so far.  Saving SCF results.
 GradGradGradGradGradGradGradGradGradGradGradGradGradGradGradGradGradGrad

 Largest change from initial coordinates is atom    5       1.784 Angstoms.
 Leave Link  103 at Thu Mar 19 16:56:46 2026, MaxMem=   536870912 cpu:         0.0
 (Enter C:\G09W\l202.exe)
                          Input orientation:                          
 ---------------------------------------------------------------------
 Center     Atomic      Atomic             Coordinates (Angstroms)
 Number     Number       Type             X           Y           Z
 ---------------------------------------------------------------------
      1          6           0        0.000000    0.000000    0.000000
      2          1           0       -0.676023    0.854983   -0.085448
      3          1           0       -0.395344   -0.836780   -0.582071
      4          1           0        0.084839   -0.294037    1.049595
      5          1           0        0.986528    0.275834   -0.382077
 ---------------------------------------------------------------------
                    Distance matrix (angstroms):
                    1          2          3          4          5
     1  C    0.000000
     2  H    1.093300   0.000000
     3  H    1.093300   1.785351   0.000000
     4  H    1.093300   1.785351   1.785351   0.000000
     5  H    1.093300   1.785351   1.785351   1.785351   0.000000
 Stoichiometry    CH4
 Framework group  TD[O(C),4C3(H)]
 Deg. of freedom     1
 Full point group                 TD      NOp  24
 RotChk:  IX=0 Diff= 6.52D-16
 Largest Abelian subgroup         D2      NOp   4
 Largest concise Abelian subgroup D2      NOp   4
                         Standard orientation:                         
 ---------------------------------------------------------------------
 Center     Atomic      Atomic             Coordinates (Angstroms)
 Number     Number       Type             X           Y           Z
 ---------------------------------------------------------------------
      1          6           0        0.000000    0.000000    0.000000
      2          1           0        0.631217    0.631217    0.631217
      3          1           0       -0.631217   -0.631217    0.631217
      4          1           0        0.631217   -0.631217   -0.631217
      5          1           0       -0.631217    0.631217   -0.631217
 ---------------------------------------------------------------------
 Rotational constants (GHZ):    157.3202869    157.3202869    157.3202869
 Leave Link  202 at Thu Mar 19 16:56:46 2026, MaxMem=   536870912 cpu:         0.0
 (Enter C:\G09W\l601.exe)
 Copying SCF densities to generalized density rwf, IOpCl= 0 IROHF=0.

 **********************************************************************

            Population analysis using the SCF density.

 **********************************************************************

 Orbital symmetries:
       Occupied  (A1) (A1) (T2) (T2) (T2)
       Virtual   (A1) (T2) (T2) (T2) (T2) (T2) (T2) (T2) (T2) (T2)
                 (A1) (A1) (E) (E) (T2) (T2) (T2) (A1)
 The electronic state is 1-A1.
 Alpha  occ. eigenvalues --  -10.16696  -0.69029  -0.38906  -0.38906  -0.38906
 Alpha virt. eigenvalues --    0.11791   0.17653   0.17653   0.17653   0.53326
 Alpha virt. eigenvalues --    0.53326   0.53326   0.89770   0.89770   0.89770
 Alpha virt. eigenvalues --    0.94742   1.09983   1.65652   1.65652   2.24357
 Alpha virt. eigenvalues --    2.24357   2.24357   4.17915
          Condensed to atoms (all electrons):
               1          2          3          4          5
     1  C    5.093145   0.383772   0.383772   0.383772   0.383772
     2  H    0.383772   0.539537  -0.026789  -0.026789  -0.026789
     3  H    0.383772  -0.026789   0.539537  -0.026789  -0.026789
     4  H    0.383772  -0.026789  -0.026789   0.539537  -0.026789
     5  H    0.383772  -0.026789  -0.026789  -0.026789   0.539537
 Mulliken charges:
               1
     1  C   -0.628232
     2  H    0.157058
     3  H    0.157058
     4  H    0.157058
     5  H    0.157058
 Sum of Mulliken charges =   0.00000
 Mulliken charges with hydrogens summed into heavy atoms:
               1
     1  C    0.000000
 Electronic spatial extent (au):  <R**2>=             35.4783
 Charge=              0.0000 electrons
 Dipole moment (field-independent basis, Debye):
    X=              0.0000    Y=              0.0000    Z=              0.0000  Tot=              0.0000
 Quadrupole moment (field-independent basis, Debye-Ang):
   XX=             -8.2515   YY=             -8.2515   ZZ=             -8.2515
   XY=              0.0000   XZ=              0.0000   YZ=              0.0000
 Traceless Quadrupole moment (field-independent basis, Debye-Ang):
   XX=              0.0000   YY=              0.0000   ZZ=              0.0000
   XY=              0.0000   XZ=              0.0000   YZ=              0.0000
 Octapole moment (field-independent basis, Debye-Ang**2):
  XXX=              0.0000  YYY=              0.0000  ZZZ=              0.0000  XYY=              0.0000
  XXY=              0.0000  XXZ=              0.0000  XZZ=              0.0000  YZZ=              0.0000
  YYZ=              0.0000  XYZ=              0.6712
 Hexadecapole moment (field-independent basis, Debye-Ang**3):
 XXXX=            -15.7521 YYYY=            -15.7521 ZZZZ=            -15.7521 XXXY=              0.0000
 XXXZ=              0.0000 YYYX=              0.0000 YYYZ=              0.0000 ZZZX=              0.0000
 ZZZY=              0.0000 XXYY=             -4.8061 XXZZ=             -4.8061 YYZZ=             -4.8061
 XXYZ=              0.0000 YYXZ=              0.0000 ZZXY=              0.0000
 N-N= 1.339483764625D+01 E-N=-1.198290829767D+02  KE= 4.007089076772D+01
 Symmetry A    KE= 3.429159388079D+01
 Symmetry B1   KE= 1.926432295645D+00
 Symmetry B2   KE= 1.926432295645D+00
 Symmetry B3   KE= 1.926432295645D+00
 No NMR shielding tensors so no spin-rotation constants.
 Leave Link  601 at Thu Mar 19 16:56:46 2026, MaxMem=   536870912 cpu:         0.0
 (Enter C:\G09W\l9999.exe)
 1|1|UNPC-DESKTOP-GS7R1K3|FOpt|RB3LYP|6-31G(d)|C1H4|1172|19-Mar-2026|0|
 |#p opt B3LYP/6-31G(d)||methane [rdkit]||0,1|C,0.,0.,0.|H,-0.676023035
 4,0.8549831435,-0.0854475285|H,-0.3953441412,-0.836780369,-0.582070635
 1|H,0.0848390924,-0.2940366736,1.0495948567|H,0.9865280842,0.275833899
 1,-0.382076693||Version=EM64W-G09RevD.01|State=1-A1|HF=-40.5183892|RMS
 D=4.137e-009|RMSF=1.186e-005|Dipole=0.,0.,0.|Quadrupole=0.,0.,0.,0.,0.
 ,0.|PG=TD [O(C1),4C3(H1)]||@



 WE LOSE BECAUSE WE WIN

 GAMBLERS,

 RECOLLECTING WHICH,

 TOSS THEIR DICE AGAIN....


                          EMILY DICKINSON  BOLTS OF MELODY NO. 533
 Job cpu time:       0 days  0 hours  0 minutes 18.0 seconds.
 File lengths (MBytes):  RWF=      5 Int=      0 D2E=      0 Chk=      1 Scr=      1
 Normal termination of Gaussian 09 at Thu Mar 19 16:56:48 2026.
