 Entering Gaussian System, Link 0=C:\G09W\g09.exe
 Input=cyclopentane_rdkit.com
 Output=C:\workspace\delta_chem\data\raw\benchmark_new\cyclopentane\cyclopentane_rdkit.out
 Initial command:
 C:\G09W\l1.exe ".\Gau-11444.inp" "C:\workspace\delta_chem\data\raw\benchmark_new\cyclopentane\cyclopentane_rdkit.out" /scrdir=".\"
 Entering Link 1 = C:\G09W\l1.exe PID=      9544.
  
 Copyright (c) 1988,1990,1992,1993,1995,1998,2003,2009,2013,
            Gaussian, Inc.  All Rights Reserved.
  
 This is part of the Gaussian(R) 09 program.  It is based on
 the Gaussian(R) 03 system (copyright 2003, Gaussian, Inc.),
 the Gaussian(R) 98 system (copyright 1998, Gaussian, Inc.),
 the Gaussian(R) 94 system (copyright 1995, Gaussian, Inc.),
 the Gaussian 92(TM) system (copyright 1992, Gaussian, Inc.),
 the Gaussian 90(TM) system (copyright 1990, Gaussian, Inc.),
 the Gaussian 88(TM) system (copyright 1988, Gaussian, Inc.),
 the Gaussian 86(TM) system (copyright 1986, Carnegie Mellon
 University), and the Gaussian 82(TM) system (copyright 1983,
 Carnegie Mellon University). Gaussian is a federally registered
 trademark of Gaussian, Inc.
  
 This software contains proprietary and confidential information,
 including trade secrets, belonging to Gaussian, Inc.
  
 This software is provided under written license and may be
 used, copied, transmitted, or stored only in accord with that
 written license.
  
 The following legend is applicable only to US Government
 contracts under FAR:
  
                    RESTRICTED RIGHTS LEGEND
  
 Use, reproduction and disclosure by the US Government is
 subject to restrictions as set forth in subparagraphs (a)
 and (c) of the Commercial Computer Software - Restricted
 Rights clause in FAR 52.227-19.
  
 Gaussian, Inc.
 340 Quinnipiac St., Bldg. 40, Wallingford CT 06492
  
  
 ---------------------------------------------------------------
 Warning -- This program may not be used in any manner that
 competes with the business of Gaussian, Inc. or will provide
 assistance to any competitor of Gaussian, Inc.  The licensee
 of this program is prohibited from giving any competitor of
 Gaussian, Inc. access to this program.  By using this program,
 the user acknowledges that Gaussian, Inc. is engaged in the
 business of creating and licensing software in the field of
 computational chemistry and represents and warrants to the
 licensee that it is not a competitor of Gaussian, Inc. and that
 it will not use this program in any manner prohibited above.
 ---------------------------------------------------------------
  

 Cite this work as:
 Gaussian 09, Revision D.01,
 M. J. Frisch, G. W. Trucks, H. B. Schlegel, G. E. Scuseria, 
 M. A. Robb, J. R. Cheeseman, G. Scalmani, V. Barone, B. Mennucci, 
 G. A. Petersson, H. Nakatsuji, M. Caricato, X. Li, H. P. Hratchian, 
 A. F. Izmaylov, J. Bloino, G. Zheng, J. L. Sonnenberg, M. Hada, 
 M. Ehara, K. Toyota, R. Fukuda, J. Hasegawa, M. Ishida, T. Nakajima, 
 Y. Honda, O. Kitao, H. Nakai, T. Vreven, J. A. Montgomery, Jr., 
 J. E. Peralta, F. Ogliaro, M. Bearpark, J. J. Heyd, E. Brothers, 
 K. N. Kudin, V. N. Staroverov, T. Keith, R. Kobayashi, J. Normand, 
 K. Raghavachari, A. Rendell, J. C. Burant, S. S. Iyengar, J. Tomasi, 
 M. Cossi, N. Rega, J. M. Millam, M. Klene, J. E. Knox, J. B. Cross, 
 V. Bakken, C. Adamo, J. Jaramillo, R. Gomperts, R. E. Stratmann, 
 O. Yazyev, A. J. Austin, R. Cammi, C. Pomelli, J. W. Ochterski, 
 R. L. Martin, K. Morokuma, V. G. Zakrzewski, G. A. Voth, 
 P. Salvador, J. J. Dannenberg, S. Dapprich, A. D. Daniels, 
 O. Farkas, J. B. Foresman, J. V. Ortiz, J. Cioslowski, 
 and D. J. Fox, Gaussian, Inc., Wallingford CT, 2013.
 
 ******************************************
 Gaussian 09:  EM64W-G09RevD.01 13-Apr-2013
                20-Mar-2026 
 ******************************************
 %NProcShared=4
 Will use up to    4 processors via shared memory.
 %Mem=4GB
 %Chk=cyclopentane_rdkit.chk
 --------------------------
 #p opt freq B3LYP/6-31G(d)
 --------------------------
 1/14=-1,18=20,19=15,26=3,38=1/1,3;
 2/9=110,12=2,17=6,18=5,40=1/2;
 3/5=1,6=6,7=1,11=2,16=1,25=1,30=1,71=1,74=-5/1,2,3;
 4//1;
 5/5=2,38=5/2;
 6/7=2,8=2,9=2,10=2,28=1/1;
 7//1,2,3,16;
 1/14=-1,18=20,19=15,26=3/3(2);
 2/9=110/2;
 99//99;
 2/9=110/2;
 3/5=1,6=6,7=1,11=2,16=1,25=1,30=1,71=1,74=-5/1,2,3;
 4/5=5,16=3,69=1/1;
 5/5=2,38=5/2;
 7//1,2,3,16;
 1/14=-1,18=20,19=15,26=3/3(-5);
 2/9=110/2;
 6/7=2,8=2,9=2,10=2,19=2,28=1/1;
 99/9=1/99;
 Leave Link    1 at Fri Mar 20 17:20:02 2026, MaxMem=   536870912 cpu:         1.0
 (Enter C:\G09W\l101.exe)
 ------------------
 cyclopentane rdkit
 ------------------
 Symbolic Z-matrix:
 Charge =  0 Multiplicity = 1
 C                    -0.33899   1.22445   0.11879 
 C                     1.03305   0.69431  -0.26828 
 C                     1.01059  -0.73488   0.24473 
 C                    -0.38996  -1.20998  -0.11041 
 C                    -1.28007   0.02541   0.01477 
 H                    -0.32046   1.58849   1.15305 
 H                    -0.65522   2.05522  -0.51917 
 H                     1.14875   0.70477  -1.35854 
 H                     1.84476   1.28291   0.16846 
 H                     1.15086  -0.75042   1.33204 
 H                     1.78803  -1.35502  -0.21033 
 H                    -0.40972  -1.57395  -1.14467 
 H                    -0.72411  -2.02786   0.53502 
 H                    -1.93746   0.11242  -0.85713 
 H                    -1.92007  -0.03586   0.90166 
 
 NAtoms=     15 NQM=       15 NQMF=       0 NMMI=      0 NMMIF=      0
                NMic=       0 NMicF=      0.
                    Isotopes and Nuclear Properties:
 (Nuclear quadrupole moments (NQMom) in fm**2, nuclear magnetic moments (NMagM)
  in nuclear magnetons)

  Atom         1           2           3           4           5           6           7           8           9          10
 IAtWgt=          12          12          12          12          12           1           1           1           1           1
 AtmWgt=  12.0000000  12.0000000  12.0000000  12.0000000  12.0000000   1.0078250   1.0078250   1.0078250   1.0078250   1.0078250
 NucSpn=           0           0           0           0           0           1           1           1           1           1
 AtZEff=   0.0000000   0.0000000   0.0000000   0.0000000   0.0000000   0.0000000   0.0000000   0.0000000   0.0000000   0.0000000
 NQMom=    0.0000000   0.0000000   0.0000000   0.0000000   0.0000000   0.0000000   0.0000000   0.0000000   0.0000000   0.0000000
 NMagM=    0.0000000   0.0000000   0.0000000   0.0000000   0.0000000   2.7928460   2.7928460   2.7928460   2.7928460   2.7928460
 AtZNuc=   6.0000000   6.0000000   6.0000000   6.0000000   6.0000000   1.0000000   1.0000000   1.0000000   1.0000000   1.0000000

  Atom        11          12          13          14          15
 IAtWgt=           1           1           1           1           1
 AtmWgt=   1.0078250   1.0078250   1.0078250   1.0078250   1.0078250
 NucSpn=           1           1           1           1           1
 AtZEff=   0.0000000   0.0000000   0.0000000   0.0000000   0.0000000
 NQMom=    0.0000000   0.0000000   0.0000000   0.0000000   0.0000000
 NMagM=    2.7928460   2.7928460   2.7928460   2.7928460   2.7928460
 AtZNuc=   1.0000000   1.0000000   1.0000000   1.0000000   1.0000000
 Leave Link  101 at Fri Mar 20 17:20:02 2026, MaxMem=   536870912 cpu:         0.0
 (Enter C:\G09W\l103.exe)

 GradGradGradGradGradGradGradGradGradGradGradGradGradGradGradGradGradGrad
 Berny optimization.
 Initialization pass.
                           ----------------------------
                           !    Initial Parameters    !
                           ! (Angstroms and Degrees)  !
 --------------------------                            --------------------------
 ! Name  Definition              Value          Derivative Info.                !
 --------------------------------------------------------------------------------
 ! R1    R(1,2)                  1.521          estimate D2E/DX2                !
 ! R2    R(1,5)                  1.5278         estimate D2E/DX2                !
 ! R3    R(1,6)                  1.0966         estimate D2E/DX2                !
 ! R4    R(1,7)                  1.0942         estimate D2E/DX2                !
 ! R5    R(2,3)                  1.5186         estimate D2E/DX2                !
 ! R6    R(2,8)                  1.0964         estimate D2E/DX2                !
 ! R7    R(2,9)                  1.0937         estimate D2E/DX2                !
 ! R8    R(3,4)                  1.521          estimate D2E/DX2                !
 ! R9    R(3,10)                 1.0964         estimate D2E/DX2                !
 ! R10   R(3,11)                 1.0937         estimate D2E/DX2                !
 ! R11   R(4,5)                  1.5278         estimate D2E/DX2                !
 ! R12   R(4,12)                 1.0966         estimate D2E/DX2                !
 ! R13   R(4,13)                 1.0941         estimate D2E/DX2                !
 ! R14   R(5,14)                 1.0954         estimate D2E/DX2                !
 ! R15   R(5,15)                 1.0954         estimate D2E/DX2                !
 ! A1    A(2,1,5)              105.3535         estimate D2E/DX2                !
 ! A2    A(2,1,6)              109.9066         estimate D2E/DX2                !
 ! A3    A(2,1,7)              112.1467         estimate D2E/DX2                !
 ! A4    A(5,1,6)              109.5819         estimate D2E/DX2                !
 ! A5    A(5,1,7)              112.2207         estimate D2E/DX2                !
 ! A6    A(6,1,7)              107.6222         estimate D2E/DX2                !
 ! A7    A(1,2,3)              103.2214         estimate D2E/DX2                !
 ! A8    A(1,2,8)              110.1774         estimate D2E/DX2                !
 ! A9    A(1,2,9)              112.3525         estimate D2E/DX2                !
 ! A10   A(3,2,8)              110.2702         estimate D2E/DX2                !
 ! A11   A(3,2,9)              112.493          estimate D2E/DX2                !
 ! A12   A(8,2,9)              108.2786         estimate D2E/DX2                !
 ! A13   A(2,3,4)              103.2211         estimate D2E/DX2                !
 ! A14   A(2,3,10)             110.2703         estimate D2E/DX2                !
 ! A15   A(2,3,11)             112.493          estimate D2E/DX2                !
 ! A16   A(4,3,10)             110.1775         estimate D2E/DX2                !
 ! A17   A(4,3,11)             112.3525         estimate D2E/DX2                !
 ! A18   A(10,3,11)            108.2788         estimate D2E/DX2                !
 ! A19   A(3,4,5)              105.3532         estimate D2E/DX2                !
 ! A20   A(3,4,12)             109.9065         estimate D2E/DX2                !
 ! A21   A(3,4,13)             112.147          estimate D2E/DX2                !
 ! A22   A(5,4,12)             109.5819         estimate D2E/DX2                !
 ! A23   A(5,4,13)             112.2207         estimate D2E/DX2                !
 ! A24   A(12,4,13)            107.6225         estimate D2E/DX2                !
 ! A25   A(1,5,4)              106.3389         estimate D2E/DX2                !
 ! A26   A(1,5,14)             111.1932         estimate D2E/DX2                !
 ! A27   A(1,5,15)             110.4049         estimate D2E/DX2                !
 ! A28   A(4,5,14)             110.4051         estimate D2E/DX2                !
 ! A29   A(4,5,15)             111.1929         estimate D2E/DX2                !
 ! A30   A(14,5,15)            107.3525         estimate D2E/DX2                !
 ! D1    D(5,1,2,3)            -33.2282         estimate D2E/DX2                !
 ! D2    D(5,1,2,8)             84.5135         estimate D2E/DX2                !
 ! D3    D(5,1,2,9)           -154.6626         estimate D2E/DX2                !
 ! D4    D(6,1,2,3)             84.746          estimate D2E/DX2                !
 ! D5    D(6,1,2,8)           -157.5122         estimate D2E/DX2                !
 ! D6    D(6,1,2,9)            -36.6884         estimate D2E/DX2                !
 ! D7    D(7,1,2,3)           -155.5833         estimate D2E/DX2                !
 ! D8    D(7,1,2,8)            -37.8416         estimate D2E/DX2                !
 ! D9    D(7,1,2,9)             82.9823         estimate D2E/DX2                !
 ! D10   D(2,1,5,4)             12.6951         estimate D2E/DX2                !
 ! D11   D(2,1,5,14)          -107.527          estimate D2E/DX2                !
 ! D12   D(2,1,5,15)           133.4253         estimate D2E/DX2                !
 ! D13   D(6,1,5,4)           -105.4976         estimate D2E/DX2                !
 ! D14   D(6,1,5,14)           134.2803         estimate D2E/DX2                !
 ! D15   D(6,1,5,15)            15.2326         estimate D2E/DX2                !
 ! D16   D(7,1,5,4)            135.0025         estimate D2E/DX2                !
 ! D17   D(7,1,5,14)            14.7804         estimate D2E/DX2                !
 ! D18   D(7,1,5,15)          -104.2673         estimate D2E/DX2                !
 ! D19   D(1,2,3,4)             41.0526         estimate D2E/DX2                !
 ! D20   D(1,2,3,10)           -76.624          estimate D2E/DX2                !
 ! D21   D(1,2,3,11)           162.3918         estimate D2E/DX2                !
 ! D22   D(8,2,3,4)            -76.624          estimate D2E/DX2                !
 ! D23   D(8,2,3,10)           165.6994         estimate D2E/DX2                !
 ! D24   D(8,2,3,11)            44.7152         estimate D2E/DX2                !
 ! D25   D(9,2,3,4)            162.392          estimate D2E/DX2                !
 ! D26   D(9,2,3,10)            44.7154         estimate D2E/DX2                !
 ! D27   D(9,2,3,11)           -76.2688         estimate D2E/DX2                !
 ! D28   D(2,3,4,5)            -33.2306         estimate D2E/DX2                !
 ! D29   D(2,3,4,12)            84.7434         estimate D2E/DX2                !
 ! D30   D(2,3,4,13)          -155.5856         estimate D2E/DX2                !
 ! D31   D(10,3,4,5)            84.5111         estimate D2E/DX2                !
 ! D32   D(10,3,4,12)         -157.5149         estimate D2E/DX2                !
 ! D33   D(10,3,4,13)          -37.8439         estimate D2E/DX2                !
 ! D34   D(11,3,4,5)          -154.6648         estimate D2E/DX2                !
 ! D35   D(11,3,4,12)          -36.6908         estimate D2E/DX2                !
 ! D36   D(11,3,4,13)           82.9802         estimate D2E/DX2                !
 ! D37   D(3,4,5,1)             12.699          estimate D2E/DX2                !
 ! D38   D(3,4,5,14)           133.4298         estimate D2E/DX2                !
 ! D39   D(3,4,5,15)          -107.5226         estimate D2E/DX2                !
 ! D40   D(12,4,5,1)          -105.4934         estimate D2E/DX2                !
 ! D41   D(12,4,5,14)           15.2374         estimate D2E/DX2                !
 ! D42   D(12,4,5,15)          134.285          estimate D2E/DX2                !
 ! D43   D(13,4,5,1)           135.0064         estimate D2E/DX2                !
 ! D44   D(13,4,5,14)         -104.2628         estimate D2E/DX2                !
 ! D45   D(13,4,5,15)           14.7848         estimate D2E/DX2                !
 --------------------------------------------------------------------------------
 Trust Radius=3.00D-01 FncErr=1.00D-07 GrdErr=1.00D-06
 Number of steps in this run=    100 maximum allowed number of steps=    100.
 GradGradGradGradGradGradGradGradGradGradGradGradGradGradGradGradGradGrad

 Leave Link  103 at Fri Mar 20 17:20:02 2026, MaxMem=   536870912 cpu:         0.0
 (Enter C:\G09W\l202.exe)
                          Input orientation:                          
 ---------------------------------------------------------------------
 Center     Atomic      Atomic             Coordinates (Angstroms)
 Number     Number       Type             X           Y           Z
 ---------------------------------------------------------------------
      1          6           0       -0.338990    1.224450    0.118791
      2          6           0        1.033048    0.694306   -0.268283
      3          6           0        1.010589   -0.734877    0.244729
      4          6           0       -0.389955   -1.209979   -0.110407
      5          6           0       -1.280067    0.025408    0.014771
      6          1           0       -0.320463    1.588487    1.153051
      7          1           0       -0.655215    2.055217   -0.519169
      8          1           0        1.148753    0.704766   -1.358543
      9          1           0        1.844760    1.282907    0.168461
     10          1           0        1.150864   -0.750419    1.332039
     11          1           0        1.788031   -1.355023   -0.210325
     12          1           0       -0.409719   -1.573946   -1.144669
     13          1           0       -0.724112   -2.027861    0.535015
     14          1           0       -1.937455    0.112419   -0.857125
     15          1           0       -1.920068   -0.035855    0.901664
 ---------------------------------------------------------------------
                    Distance matrix (angstroms):
                    1          2          3          4          5
     1  C    0.000000
     2  C    1.520976   0.000000
     3  C    2.382475   1.518634   0.000000
     4  C    2.445726   2.382470   1.520976   0.000000
     5  C    1.527792   2.424468   2.424463   1.527793   0.000000
     6  H    1.096613   2.156790   2.827502   3.071248   2.158642
     7  H    1.094150   2.182946   3.338123   3.301356   2.189899
     8  H    2.160085   1.096432   2.159199   2.755307   2.871704
     9  H    2.185097   1.093651   2.184745   3.359494   3.371864
    10  H    2.755312   2.159199   1.096431   2.160085   2.871677
    11  H    3.359496   2.184744   1.093650   2.185096   3.371866
    12  H    3.071214   2.827472   2.156789   1.096613   2.158643
    13  H    3.301377   3.338127   2.182948   1.094149   2.189898
    14  H    2.178099   3.083702   3.259288   2.168198   1.095414
    15  H    2.168194   3.259265   3.083658   2.178096   1.095415
                    6          7          8          9         10
     6  H    0.000000
     7  H    1.768111   0.000000
     8  H    3.040997   2.404697   0.000000
     9  H    2.398122   2.705397   1.774941   0.000000
    10  H    2.768993   3.815820   3.058889   2.443322   0.000000
    11  H    3.868952   4.206492   2.443320   2.665590   1.774941
    12  H    3.910047   3.690846   2.768954   3.868927   3.041003
    13  H    3.690918   4.217532   3.815814   4.206501   2.404712
    14  H    2.972246   2.352194   3.182291   4.089868   3.882608
    15  H    2.293560   2.826871   3.882617   4.055940   3.182208
                   11         12         13         14         15
    11  H    0.000000
    12  H    2.398131   0.000000
    13  H    2.705384   1.768112   0.000000
    14  H    4.055981   2.293575   2.826845   0.000000
    15  H    4.089832   2.972265   2.352197   1.765114   0.000000
 Stoichiometry    C5H10
 Framework group  C1[X(C5H10)]
 Deg. of freedom    39
 Full point group                 C1      NOp   1
 Largest Abelian subgroup         C1      NOp   1
 Largest concise Abelian subgroup C1      NOp   1
                         Standard orientation:                         
 ---------------------------------------------------------------------
 Center     Atomic      Atomic             Coordinates (Angstroms)
 Number     Number       Type             X           Y           Z
 ---------------------------------------------------------------------
      1          6           0        0.369104   -1.214960    0.138255
      2          6           0       -1.017639   -0.719699   -0.242569
      3          6           0       -1.017878    0.719357    0.242579
      4          6           0        0.368691    1.215082   -0.138276
      5          6           0        1.284734    0.000219    0.000011
      6          1           0        0.369787   -1.559106    1.179468
      7          1           0        0.694520   -2.051559   -0.487342
      8          1           0       -1.145668   -0.753651   -1.330971
      9          1           0       -1.812321   -1.315640    0.215042
     10          1           0       -1.145896    0.753267    1.330982
     11          1           0       -1.812768    1.315029   -0.215019
     12          1           0        0.369246    1.559182   -1.179504
     13          1           0        0.693828    2.051816    0.487283
     14          1           0        1.933640   -0.090710   -0.877819
     15          1           0        1.933558    0.091374    0.877878
 ---------------------------------------------------------------------
 Rotational constants (GHZ):      6.6270635      6.6188727      3.8323385
 Leave Link  202 at Fri Mar 20 17:20:03 2026, MaxMem=   536870912 cpu:         0.0
 (Enter C:\G09W\l301.exe)
 Standard basis: 6-31G(d) (6D, 7F)
 Ernie: Thresh=  0.10000D-02 Tol=  0.10000D-05 Strict=F.
 There are    95 symmetry adapted cartesian basis functions of A   symmetry.
 There are    95 symmetry adapted basis functions of A   symmetry.
    95 basis functions,   180 primitive gaussians,    95 cartesian basis functions
    20 alpha electrons       20 beta electrons
       nuclear repulsion energy       189.1065466646 Hartrees.
 IExCor=  402 DFT=T Ex+Corr=B3LYP ExCW=0 ScaHFX=  0.200000
 ScaDFX=  0.800000  0.720000  1.000000  0.810000 ScalE2=  1.000000  1.000000
 IRadAn=      0 IRanWt=     -1 IRanGd=            0 ICorTp=0 IEmpDi=  4
 NAtoms=   15 NActive=   15 NUniq=   15 SFac= 1.00D+00 NAtFMM=   60 NAOKFM=F Big=F
 Integral buffers will be    131072 words long.
 Raffenetti 2 integral format.
 Two-electron integral symmetry is turned on.
 Leave Link  301 at Fri Mar 20 17:20:03 2026, MaxMem=   536870912 cpu:         0.0
 (Enter C:\G09W\l302.exe)
 NPDir=0 NMtPBC=     1 NCelOv=     1 NCel=       1 NClECP=     1 NCelD=      1
         NCelK=      1 NCelE2=     1 NClLst=     1 CellRange=     0.0.
 One-electron integrals computed using PRISM.
 NBasis=    95 RedAO= T EigKep=  3.22D-03  NBF=    95
 NBsUse=    95 1.00D-06 EigRej= -1.00D+00 NBFU=    95
 Precomputing XC quadrature grid using
 IXCGrd= 4 IRadAn=           0 IRanWt=          -1 IRanGd=           0 AccXCQ= 0.00D+00.
 Generated NRdTot=       0 NPtTot=           0 NUsed=           0 NTot=          32
 NSgBfM=    95    95    95    95    95 MxSgAt=    15 MxSgA2=    15.
 Leave Link  302 at Fri Mar 20 17:20:04 2026, MaxMem=   536870912 cpu:         0.0
 (Enter C:\G09W\l303.exe)
 DipDrv:  MaxL=1.
 Leave Link  303 at Fri Mar 20 17:20:04 2026, MaxMem=   536870912 cpu:         0.0
 (Enter C:\G09W\l401.exe)
 ExpMin= 1.61D-01 ExpMax= 3.05D+03 ExpMxC= 4.57D+02 IAcc=1 IRadAn=         1 AccDes= 0.00D+00
 Harris functional with IExCor=  402 and IRadAn=       1 diagonalized for initial guess.
 HarFok:  IExCor=  402 AccDes= 0.00D+00 IRadAn=         1 IDoV= 1 UseB2=F ITyADJ=14
 ICtDFT=  3500011 ScaDFX=  1.000000  1.000000  1.000000  1.000000
 FoFCou: FMM=F IPFlag=           0 FMFlag=      100000 FMFlg1=           0
         NFxFlg=           0 DoJE=T BraDBF=F KetDBF=T FulRan=T
         wScrn=  0.000000 ICntrl=     500 IOpCl=  0 I1Cent=   200000004 NGrid=           0
         NMat0=    1 NMatS0=      1 NMatT0=    0 NMatD0=    1 NMtDS0=    0 NMtDT0=    0
 Petite list used in FoFCou.
 Harris En= -196.613184815350    
 JPrj=0 DoOrth=F DoCkMO=F.
 Leave Link  401 at Fri Mar 20 17:20:06 2026, MaxMem=   536870912 cpu:         1.0
 (Enter C:\G09W\l502.exe)
 Closed shell SCF:
 Using DIIS extrapolation, IDIIS=  1040.
 Integral symmetry usage will be decided dynamically.
 Keep R1 ints in memory in canonical form, NReq=11361312.
 IVT=       46930 IEndB=       46930 NGot=   536870912 MDV=   526424903
 LenX=   526424903 LenY=   526415437
 Requested convergence on RMS density matrix=1.00D-08 within 128 cycles.
 Requested convergence on MAX density matrix=1.00D-06.
 Requested convergence on             energy=1.00D-06.
 No special actions if energy rises.
 FoFCou: FMM=F IPFlag=           0 FMFlag=           0 FMFlg1=           0
         NFxFlg=           0 DoJE=F BraDBF=F KetDBF=F FulRan=T
         wScrn=  0.000000 ICntrl=     600 IOpCl=  0 I1Cent=           0 NGrid=           0
         NMat0=    1 NMatS0=   4560 NMatT0=    0 NMatD0=    1 NMtDS0=    0 NMtDT0=    0
 Symmetry not used in FoFCou.
 Integral accuracy reduced to 1.0D-05 until final iterations.

 Cycle   1  Pass 0  IDiag  1:
 E= -196.343529482529    
 DIIS: error= 5.12D-02 at cycle   1 NSaved=   1.
 NSaved= 1 IEnMin= 1 EnMin= -196.343529482529     IErMin= 1 ErrMin= 5.12D-02
 ErrMax= 5.12D-02  0.00D+00 EMaxC= 1.00D-01 BMatC= 1.87D-01 BMatP= 1.87D-01
 IDIUse=3 WtCom= 4.88D-01 WtEn= 5.12D-01
 Coeff-Com:  0.100D+01
 Coeff-En:   0.100D+01
 Coeff:      0.100D+01
 Gap=     0.345 Goal=   None    Shift=    0.000
 GapD=    0.345 DampG=1.000 DampE=0.500 DampFc=0.5000 IDamp=-1.
 Damping current iteration by 5.00D-01
 RMSDP=1.16D-02 MaxDP=1.49D-01              OVMax= 1.85D-01

 Cycle   2  Pass 0  IDiag  1:
 E= -196.428610763606     Delta-E=       -0.085081281077 Rises=F Damp=T
 DIIS: error= 9.58D-03 at cycle   2 NSaved=   2.
 NSaved= 2 IEnMin= 2 EnMin= -196.428610763606     IErMin= 2 ErrMin= 9.58D-03
 ErrMax= 9.58D-03  0.00D+00 EMaxC= 1.00D-01 BMatC= 1.23D-02 BMatP= 1.87D-01
 IDIUse=3 WtCom= 9.04D-01 WtEn= 9.58D-02
 Coeff-Com:  0.122D+00 0.878D+00
 Coeff-En:   0.198D+00 0.802D+00
 Coeff:      0.129D+00 0.871D+00
 Gap=     0.406 Goal=   None    Shift=    0.000
 RMSDP=2.07D-03 MaxDP=2.84D-02 DE=-8.51D-02 OVMax= 1.10D-01

 Cycle   3  Pass 0  IDiag  1:
 E= -196.553814285458     Delta-E=       -0.125203521852 Rises=F Damp=F
 DIIS: error= 4.30D-03 at cycle   3 NSaved=   3.
 NSaved= 3 IEnMin= 3 EnMin= -196.553814285458     IErMin= 3 ErrMin= 4.30D-03
 ErrMax= 4.30D-03  0.00D+00 EMaxC= 1.00D-01 BMatC= 1.36D-03 BMatP= 1.23D-02
 IDIUse=3 WtCom= 9.57D-01 WtEn= 4.30D-02
 Coeff-Com:  0.596D-02 0.222D+00 0.772D+00
 Coeff-En:   0.000D+00 0.000D+00 0.100D+01
 Coeff:      0.570D-02 0.212D+00 0.782D+00
 Gap=     0.390 Goal=   None    Shift=    0.000
 RMSDP=4.99D-04 MaxDP=4.14D-03 DE=-1.25D-01 OVMax= 8.71D-03

 Cycle   4  Pass 0  IDiag  1:
 E= -196.555004126341     Delta-E=       -0.001189840883 Rises=F Damp=F
 DIIS: error= 7.52D-04 at cycle   4 NSaved=   4.
 NSaved= 4 IEnMin= 4 EnMin= -196.555004126341     IErMin= 4 ErrMin= 7.52D-04
 ErrMax= 7.52D-04  0.00D+00 EMaxC= 1.00D-01 BMatC= 4.56D-05 BMatP= 1.36D-03
 IDIUse=3 WtCom= 9.92D-01 WtEn= 7.52D-03
 Coeff-Com: -0.251D-02 0.288D-02 0.161D+00 0.839D+00
 Coeff-En:   0.000D+00 0.000D+00 0.000D+00 0.100D+01
 Coeff:     -0.249D-02 0.286D-02 0.160D+00 0.840D+00
 Gap=     0.390 Goal=   None    Shift=    0.000
 RMSDP=8.48D-05 MaxDP=6.54D-04 DE=-1.19D-03 OVMax= 1.44D-03

 Cycle   5  Pass 0  IDiag  1:
 E= -196.555046333410     Delta-E=       -0.000042207069 Rises=F Damp=F
 DIIS: error= 5.89D-05 at cycle   5 NSaved=   5.
 NSaved= 5 IEnMin= 5 EnMin= -196.555046333410     IErMin= 5 ErrMin= 5.89D-05
 ErrMax= 5.89D-05  0.00D+00 EMaxC= 1.00D-01 BMatC= 4.76D-07 BMatP= 4.56D-05
 IDIUse=1 WtCom= 1.00D+00 WtEn= 0.00D+00
 Coeff-Com: -0.730D-03 0.116D-03 0.504D-01 0.281D+00 0.669D+00
 Coeff:     -0.730D-03 0.116D-03 0.504D-01 0.281D+00 0.669D+00
 Gap=     0.390 Goal=   None    Shift=    0.000
 RMSDP=1.08D-05 MaxDP=1.44D-04 DE=-4.22D-05 OVMax= 2.09D-04

 Cycle   6  Pass 0  IDiag  1:
 E= -196.555046696210     Delta-E=       -0.000000362801 Rises=F Damp=F
 DIIS: error= 2.84D-05 at cycle   6 NSaved=   6.
 NSaved= 6 IEnMin= 6 EnMin= -196.555046696210     IErMin= 6 ErrMin= 2.84D-05
 ErrMax= 2.84D-05  0.00D+00 EMaxC= 1.00D-01 BMatC= 1.18D-07 BMatP= 4.76D-07
 IDIUse=1 WtCom= 1.00D+00 WtEn= 0.00D+00
 Coeff-Com:  0.472D-04-0.465D-03 0.140D-02 0.179D-01 0.337D+00 0.644D+00
 Coeff:      0.472D-04-0.465D-03 0.140D-02 0.179D-01 0.337D+00 0.644D+00
 Gap=     0.390 Goal=   None    Shift=    0.000
 RMSDP=3.67D-06 MaxDP=5.57D-05 DE=-3.63D-07 OVMax= 7.06D-05

 Initial convergence to 1.0D-05 achieved.  Increase integral accuracy.
 Cycle   7  Pass 1  IDiag  1:
 E= -196.555131926723     Delta-E=       -0.000085230512 Rises=F Damp=F
 DIIS: error= 3.28D-05 at cycle   1 NSaved=   1.
 NSaved= 1 IEnMin= 1 EnMin= -196.555131926723     IErMin= 1 ErrMin= 3.28D-05
 ErrMax= 3.28D-05  0.00D+00 EMaxC= 1.00D-01 BMatC= 5.85D-08 BMatP= 5.85D-08
 IDIUse=1 WtCom= 1.00D+00 WtEn= 0.00D+00
 Coeff-Com:  0.100D+01
 Coeff:      0.100D+01
 Gap=     0.390 Goal=   None    Shift=    0.000
 RMSDP=3.67D-06 MaxDP=5.57D-05 DE=-8.52D-05 OVMax= 8.93D-05

 Cycle   8  Pass 1  IDiag  1:
 E= -196.555132001655     Delta-E=       -0.000000074932 Rises=F Damp=F
 DIIS: error= 1.89D-06 at cycle   2 NSaved=   2.
 NSaved= 2 IEnMin= 2 EnMin= -196.555132001655     IErMin= 2 ErrMin= 1.89D-06
 ErrMax= 1.89D-06  0.00D+00 EMaxC= 1.00D-01 BMatC= 5.13D-10 BMatP= 5.85D-08
 IDIUse=1 WtCom= 1.00D+00 WtEn= 0.00D+00
 Coeff-Com: -0.325D-01 0.103D+01
 Coeff:     -0.325D-01 0.103D+01
 Gap=     0.390 Goal=   None    Shift=    0.000
 RMSDP=6.39D-07 MaxDP=6.90D-06 DE=-7.49D-08 OVMax= 9.74D-06

 Cycle   9  Pass 1  IDiag  1:
 E= -196.555132002094     Delta-E=       -0.000000000440 Rises=F Damp=F
 DIIS: error= 1.24D-06 at cycle   3 NSaved=   3.
 NSaved= 3 IEnMin= 3 EnMin= -196.555132002094     IErMin= 3 ErrMin= 1.24D-06
 ErrMax= 1.24D-06  0.00D+00 EMaxC= 1.00D-01 BMatC= 2.21D-10 BMatP= 5.13D-10
 IDIUse=1 WtCom= 1.00D+00 WtEn= 0.00D+00
 Coeff-Com: -0.181D-01 0.415D+00 0.603D+00
 Coeff:     -0.181D-01 0.415D+00 0.603D+00
 Gap=     0.390 Goal=   None    Shift=    0.000
 RMSDP=1.84D-07 MaxDP=2.75D-06 DE=-4.40D-10 OVMax= 3.88D-06

 Cycle  10  Pass 1  IDiag  1:
 E= -196.555132002285     Delta-E=       -0.000000000191 Rises=F Damp=F
 DIIS: error= 3.35D-07 at cycle   4 NSaved=   4.
 NSaved= 4 IEnMin= 4 EnMin= -196.555132002285     IErMin= 4 ErrMin= 3.35D-07
 ErrMax= 3.35D-07  0.00D+00 EMaxC= 1.00D-01 BMatC= 2.00D-11 BMatP= 2.21D-10
 IDIUse=1 WtCom= 1.00D+00 WtEn= 0.00D+00
 Coeff-Com: -0.625D-02 0.112D+00 0.270D+00 0.624D+00
 Coeff:     -0.625D-02 0.112D+00 0.270D+00 0.624D+00
 Gap=     0.390 Goal=   None    Shift=    0.000
 RMSDP=5.21D-08 MaxDP=8.82D-07 DE=-1.91D-10 OVMax= 1.13D-06

 Cycle  11  Pass 1  IDiag  1:
 E= -196.555132002307     Delta-E=       -0.000000000022 Rises=F Damp=F
 DIIS: error= 6.23D-08 at cycle   5 NSaved=   5.
 NSaved= 5 IEnMin= 5 EnMin= -196.555132002307     IErMin= 5 ErrMin= 6.23D-08
 ErrMax= 6.23D-08  0.00D+00 EMaxC= 1.00D-01 BMatC= 4.90D-13 BMatP= 2.00D-11
 IDIUse=1 WtCom= 1.00D+00 WtEn= 0.00D+00
 Coeff-Com: -0.212D-03-0.241D-02 0.161D-01 0.158D+00 0.829D+00
 Coeff:     -0.212D-03-0.241D-02 0.161D-01 0.158D+00 0.829D+00
 Gap=     0.390 Goal=   None    Shift=    0.000
 RMSDP=9.46D-09 MaxDP=1.40D-07 DE=-2.17D-11 OVMax= 1.85D-07

 SCF Done:  E(RB3LYP) =  -196.555132002     A.U. after   11 cycles
            NFock= 11  Conv=0.95D-08     -V/T= 2.0092
 KE= 1.947696989151D+02 PE=-8.322903212849D+02 EE= 2.518589437028D+02
 Leave Link  502 at Fri Mar 20 17:20:13 2026, MaxMem=   536870912 cpu:         7.0
 (Enter C:\G09W\l601.exe)
 Copying SCF densities to generalized density rwf, IOpCl= 0 IROHF=0.

 **********************************************************************

            Population analysis using the SCF density.

 **********************************************************************

 Orbital symmetries:
       Occupied  (A) (A) (A) (A) (A) (A) (A) (A) (A) (A) (A) (A)
                 (A) (A) (A) (A) (A) (A) (A) (A)
       Virtual   (A) (A) (A) (A) (A) (A) (A) (A) (A) (A) (A) (A)
                 (A) (A) (A) (A) (A) (A) (A) (A) (A) (A) (A) (A)
                 (A) (A) (A) (A) (A) (A) (A) (A) (A) (A) (A) (A)
                 (A) (A) (A) (A) (A) (A) (A) (A) (A) (A) (A) (A)
                 (A) (A) (A) (A) (A) (A) (A) (A) (A) (A) (A) (A)
                 (A) (A) (A) (A) (A) (A) (A) (A) (A) (A) (A) (A)
                 (A) (A) (A)
 The electronic state is 1-A.
 Alpha  occ. eigenvalues --  -10.16912 -10.16890 -10.16842 -10.16836 -10.16787
 Alpha  occ. eigenvalues --   -0.83182  -0.70195  -0.70192  -0.56151  -0.55143
 Alpha  occ. eigenvalues --   -0.47812  -0.47239  -0.41071  -0.40947  -0.32981
 Alpha  occ. eigenvalues --   -0.32917  -0.32870  -0.32365  -0.31893  -0.30697
 Alpha virt. eigenvalues --    0.08316   0.09680   0.14829   0.14851   0.17333
 Alpha virt. eigenvalues --    0.17871   0.18127   0.19358   0.19751   0.20005
 Alpha virt. eigenvalues --    0.22150   0.25812   0.26382   0.30927   0.32791
 Alpha virt. eigenvalues --    0.51999   0.54299   0.54973   0.57848   0.58160
 Alpha virt. eigenvalues --    0.59074   0.67196   0.67785   0.68711   0.68841
 Alpha virt. eigenvalues --    0.73577   0.75954   0.81238   0.82326   0.85712
 Alpha virt. eigenvalues --    0.86616   0.87381   0.89280   0.89460   0.93658
 Alpha virt. eigenvalues --    0.93802   0.95406   0.96041   0.97527   1.02914
 Alpha virt. eigenvalues --    1.19198   1.32385   1.33372   1.34751   1.59247
 Alpha virt. eigenvalues --    1.63981   1.68295   1.81306   1.81825   1.84362
 Alpha virt. eigenvalues --    1.88090   1.93539   1.99585   2.01433   2.02662
 Alpha virt. eigenvalues --    2.07404   2.08910   2.09039   2.19975   2.24814
 Alpha virt. eigenvalues --    2.26063   2.39073   2.39152   2.46154   2.54895
 Alpha virt. eigenvalues --    2.56480   2.63361   2.63684   2.67603   2.85901
 Alpha virt. eigenvalues --    4.16872   4.28154   4.28355   4.55707   4.62503
          Condensed to atoms (all electrons):
               1          2          3          4          5          6
     1  C    5.016675   0.392503  -0.073206  -0.075791   0.384833   0.379007
     2  C    0.392503   5.013639   0.386671  -0.073205  -0.076036  -0.039803
     3  C   -0.073206   0.386671   5.013640   0.392502  -0.076036   0.000161
     4  C   -0.075791  -0.073205   0.392502   5.016673   0.384835   0.001537
     5  C    0.384833  -0.076036  -0.076036   0.384835   5.027776  -0.038240
     6  H    0.379007  -0.039803   0.000161   0.001537  -0.038240   0.605832
     7  H    0.372940  -0.031834   0.005865   0.005357  -0.034101  -0.036076
     8  H   -0.040219   0.378552  -0.041014  -0.001417  -0.000585   0.005753
     9  H   -0.032554   0.371134  -0.031582   0.006090   0.006077  -0.007454
    10  H   -0.001417  -0.041014   0.378552  -0.040219  -0.000585   0.002568
    11  H    0.006090  -0.031582   0.371134  -0.032554   0.006077  -0.000131
    12  H    0.001536   0.000161  -0.039803   0.379006  -0.038240  -0.000090
    13  H    0.005358   0.005865  -0.031834   0.372939  -0.034101  -0.000126
    14  H   -0.036301   0.003234   0.004368  -0.034516   0.377219   0.005073
    15  H   -0.034517   0.004367   0.003233  -0.036302   0.377219  -0.010746
               7          8          9         10         11         12
     1  C    0.372940  -0.040219  -0.032554  -0.001417   0.006090   0.001536
     2  C   -0.031834   0.378552   0.371134  -0.041014  -0.031582   0.000161
     3  C    0.005865  -0.041014  -0.031582   0.378552   0.371134  -0.039803
     4  C    0.005357  -0.001417   0.006090  -0.040219  -0.032554   0.379006
     5  C   -0.034101  -0.000585   0.006077  -0.000585   0.006077  -0.038240
     6  H   -0.036076   0.005753  -0.007454   0.002568  -0.000131  -0.000090
     7  H    0.597420  -0.007395   0.001856  -0.000070  -0.000222  -0.000126
     8  H   -0.007395   0.608611  -0.035806   0.005862  -0.006234   0.002568
     9  H    0.001856  -0.035806   0.596797  -0.006234   0.001066  -0.000131
    10  H   -0.000070   0.005862  -0.006234   0.608611  -0.035806   0.005753
    11  H   -0.000222  -0.006234   0.001066  -0.035806   0.596796  -0.007454
    12  H   -0.000126   0.002568  -0.000131   0.005753  -0.007454   0.605832
    13  H   -0.000140  -0.000070  -0.000222  -0.007395   0.001856  -0.036076
    14  H   -0.009142   0.000722  -0.000155  -0.000074  -0.000216  -0.010746
    15  H    0.003629  -0.000074  -0.000216   0.000722  -0.000155   0.005073
              13         14         15
     1  C    0.005358  -0.036301  -0.034517
     2  C    0.005865   0.003234   0.004367
     3  C   -0.031834   0.004368   0.003233
     4  C    0.372939  -0.034516  -0.036302
     5  C   -0.034101   0.377219   0.377219
     6  H   -0.000126   0.005073  -0.010746
     7  H   -0.000140  -0.009142   0.003629
     8  H   -0.000070   0.000722  -0.000074
     9  H   -0.000222  -0.000155  -0.000216
    10  H   -0.007395  -0.000074   0.000722
    11  H    0.001856  -0.000216  -0.000155
    12  H   -0.036076  -0.010746   0.005073
    13  H    0.597420   0.003629  -0.009142
    14  H    0.003629   0.599368  -0.036251
    15  H   -0.009142  -0.036251   0.599369
 Mulliken charges:
               1
     1  C   -0.264936
     2  C   -0.262652
     3  C   -0.262652
     4  C   -0.264936
     5  C   -0.266114
     6  H    0.132737
     7  H    0.132039
     8  H    0.130745
     9  H    0.131335
    10  H    0.130745
    11  H    0.131335
    12  H    0.132736
    13  H    0.132039
    14  H    0.133790
    15  H    0.133790
 Sum of Mulliken charges =   0.00000
 Mulliken charges with hydrogens summed into heavy atoms:
               1
     1  C   -0.000161
     2  C   -0.000572
     3  C   -0.000572
     4  C   -0.000161
     5  C    0.001466
 Electronic spatial extent (au):  <R**2>=            406.2789
 Charge=              0.0000 electrons
 Dipole moment (field-independent basis, Debye):
    X=              0.0009    Y=              0.0000    Z=              0.0000  Tot=              0.0009
 Quadrupole moment (field-independent basis, Debye-Ang):
   XX=            -33.6310   YY=            -33.6331   ZZ=            -32.1733
   XY=              0.0000   XZ=              0.0000   YZ=              0.0458
 Traceless Quadrupole moment (field-independent basis, Debye-Ang):
   XX=             -0.4852   YY=             -0.4873   ZZ=              0.9725
   XY=              0.0000   XZ=              0.0000   YZ=              0.0458
 Octapole moment (field-independent basis, Debye-Ang**2):
  XXX=             -0.5108  YYY=              0.0000  ZZZ=              0.0000  XYY=             -0.0957
  XXY=              0.0000  XXZ=             -0.0004  XZZ=              0.5143  YZZ=              0.0000
  YYZ=              0.0003  XYZ=              0.9091
 Hexadecapole moment (field-independent basis, Debye-Ang**3):
 XXXX=           -243.0998 YYYY=           -242.4914 ZZZZ=            -74.2687 XXXY=             -0.0006
 XXXZ=              0.0001 YYYX=              0.0005 YYYZ=              1.7115 ZZZX=              0.0001
 ZZZY=             -0.3942 XXYY=            -79.9732 XXZZ=            -51.3839 YYZZ=            -51.5710
 XXYZ=             -0.6405 YYXZ=             -0.0005 ZZXY=              0.0000
 N-N= 1.891065466646D+02 E-N=-8.322903297096D+02  KE= 1.947696989151D+02
 No NMR shielding tensors so no spin-rotation constants.
 Leave Link  601 at Fri Mar 20 17:20:13 2026, MaxMem=   536870912 cpu:         0.0
 (Enter C:\G09W\l701.exe)
 Compute integral first derivatives.
 ... and contract with generalized density number  0.
 Leave Link  701 at Fri Mar 20 17:20:14 2026, MaxMem=   536870912 cpu:         0.0
 (Enter C:\G09W\l702.exe)
 L702 exits ... SP integral derivatives will be done elsewhere.
 Leave Link  702 at Fri Mar 20 17:20:14 2026, MaxMem=   536870912 cpu:         0.0
 (Enter C:\G09W\l703.exe)
 Compute integral first derivatives, UseDBF=F ICtDFT=           0.
 Integral derivatives from FoFJK, PRISM(SPDF).
 Calling FoFJK, ICntrl=      2127 FMM=F ISym2X=0 I1Cent= 0 IOpClX= 0 NMat=1 NMatS=1 NMatT=0.
 FoFJK:  IHMeth= 1 ICntrl=    2127 DoSepK=F KAlg= 0 I1Cent=   0 FoldK=F
 IRaf=         0 NMat=   1 IRICut=       1 DoRegI=T DoRafI=F ISym2E= 0.
 FoFCou: FMM=F IPFlag=           0 FMFlag=      100000 FMFlg1=         800
         NFxFlg=           0 DoJE=F BraDBF=F KetDBF=F FulRan=T
         wScrn=  0.000000 ICntrl=    2127 IOpCl=  0 I1Cent=           0 NGrid=           0
         NMat0=    1 NMatS0=      1 NMatT0=    0 NMatD0=    1 NMtDS0=    0 NMtDT0=    0
 Symmetry not used in FoFCou.
 Leave Link  703 at Fri Mar 20 17:20:17 2026, MaxMem=   536870912 cpu:         2.0
 (Enter C:\G09W\l716.exe)
 Dipole        = 3.35845719D-04 4.82670242D-07 7.78838536D-07
 ***** Axes restored to original set *****
 -------------------------------------------------------------------
 Center     Atomic                   Forces (Hartrees/Bohr)
 Number     Number              X              Y              Z
 -------------------------------------------------------------------
      1        6          -0.001916485    0.013498852    0.001376979
      2        6           0.008746769    0.005664159    0.000819189
      3        6           0.008491716   -0.006006388   -0.001019086
      4        6          -0.002481447   -0.013409033   -0.001326711
      5        6          -0.016416091    0.000325007    0.000189924
      6        1           0.000846716    0.002035582   -0.000189647
      7        1          -0.000412221    0.002470912    0.001555376
      8        1           0.001414008   -0.000243094   -0.001178083
      9        1           0.002304667    0.001768023   -0.002189948
     10        1           0.001449396    0.000185890    0.001145846
     11        1           0.002282935   -0.001859311    0.002136977
     12        1           0.000769528   -0.002067537    0.000170920
     13        1          -0.000546103   -0.002452751   -0.001543953
     14        1          -0.002251125    0.000093216    0.001297562
     15        1          -0.002282262   -0.000003527   -0.001245345
 -------------------------------------------------------------------
 Cartesian Forces:  Max     0.016416091 RMS     0.004564817
 Leave Link  716 at Fri Mar 20 17:20:17 2026, MaxMem=   536870912 cpu:         0.0
 (Enter C:\G09W\l103.exe)

 GradGradGradGradGradGradGradGradGradGradGradGradGradGradGradGradGradGrad
 Berny optimization.
 FormGI is forming the generalized inverse of G from B-inverse, IUseBI=4.
 Internal  Forces:  Max     0.017017811 RMS     0.003536321
 Search for a local minimum.
 Step number   1 out of a maximum of  100
 All quantities printed in internal units (Hartrees-Bohrs-Radians)
 RMS Force = .35363D-02 SwitMx=.10000D-02 MixMth= 1
 Mixed Optimization -- RFO/linear search
 Second derivative matrix not updated -- first step.
 ITU=  0
     Eigenvalues ---    0.00448   0.00672   0.02165   0.02183   0.04239
     Eigenvalues ---    0.04356   0.04548   0.04929   0.05206   0.05286
     Eigenvalues ---    0.05628   0.05749   0.06226   0.06893   0.06899
     Eigenvalues ---    0.07195   0.07206   0.07333   0.08802   0.08814
     Eigenvalues ---    0.11107   0.11345   0.20291   0.20655   0.27718
     Eigenvalues ---    0.27780   0.29216   0.29856   0.30102   0.34059
     Eigenvalues ---    0.34059   0.34080   0.34080   0.34194   0.34194
     Eigenvalues ---    0.34337   0.34338   0.34394   0.34394
 RFO step:  Lambda=-4.31432910D-03 EMin= 4.47938204D-03
 Linear search not attempted -- first point.
 Iteration  1 RMS(Cart)=  0.02271256 RMS(Int)=  0.00011015
 Iteration  2 RMS(Cart)=  0.00008078 RMS(Int)=  0.00005915
 Iteration  3 RMS(Cart)=  0.00000001 RMS(Int)=  0.00005915
 ITry= 1 IFail=0 DXMaxC= 7.04D-02 DCOld= 1.00D+10 DXMaxT= 3.00D-01 DXLimC= 3.00D+00 Rises=F
 Variable       Old X    -DE/DX   Delta X   Delta X   Delta X     New X
                                 (Linear)    (Quad)   (Total)
    R1        2.87423   0.01316   0.00000   0.04275   0.04275   2.91697
    R2        2.88711   0.01702   0.00000   0.05688   0.05688   2.94399
    R3        2.07230   0.00052   0.00000   0.00151   0.00151   2.07381
    R4        2.06764   0.00108   0.00000   0.00311   0.00311   2.07076
    R5        2.86980   0.01163   0.00000   0.03730   0.03729   2.90710
    R6        2.07196   0.00131   0.00000   0.00380   0.00380   2.07576
    R7        2.06670   0.00179   0.00000   0.00514   0.00514   2.07184
    R8        2.87423   0.01316   0.00000   0.04274   0.04274   2.91697
    R9        2.07195   0.00131   0.00000   0.00381   0.00381   2.07576
   R10        2.06670   0.00179   0.00000   0.00514   0.00514   2.07184
   R11        2.88711   0.01702   0.00000   0.05687   0.05687   2.94398
   R12        2.07230   0.00052   0.00000   0.00151   0.00151   2.07381
   R13        2.06764   0.00108   0.00000   0.00312   0.00312   2.07076
   R14        2.07003   0.00033   0.00000   0.00094   0.00094   2.07097
   R15        2.07003   0.00033   0.00000   0.00094   0.00094   2.07097
    A1        1.83877  -0.00006   0.00000   0.00109   0.00109   1.83986
    A2        1.91823  -0.00085   0.00000  -0.00998  -0.00998   1.90826
    A3        1.95733   0.00073   0.00000   0.00932   0.00922   1.96655
    A4        1.91256   0.00110   0.00000   0.01010   0.01011   1.92267
    A5        1.95862   0.00033   0.00000   0.00985   0.00976   1.96838
    A6        1.87836  -0.00120   0.00000  -0.01986  -0.01985   1.85852
    A7        1.80155   0.00110   0.00000   0.00667   0.00659   1.80814
    A8        1.92296   0.00029   0.00000   0.00049   0.00051   1.92347
    A9        1.96092  -0.00003   0.00000   0.01083   0.01061   1.97153
   A10        1.92458  -0.00112   0.00000  -0.01305  -0.01302   1.91156
   A11        1.96337   0.00073   0.00000   0.01501   0.01481   1.97819
   A12        1.88982  -0.00091   0.00000  -0.01903  -0.01894   1.87088
   A13        1.80155   0.00110   0.00000   0.00667   0.00659   1.80814
   A14        1.92458  -0.00112   0.00000  -0.01304  -0.01302   1.91156
   A15        1.96337   0.00073   0.00000   0.01500   0.01481   1.97818
   A16        1.92296   0.00029   0.00000   0.00049   0.00051   1.92347
   A17        1.96092  -0.00003   0.00000   0.01083   0.01061   1.97153
   A18        1.88982  -0.00091   0.00000  -0.01903  -0.01894   1.87088
   A19        1.83876  -0.00006   0.00000   0.00109   0.00109   1.83985
   A20        1.91823  -0.00085   0.00000  -0.00998  -0.00998   1.90825
   A21        1.95733   0.00073   0.00000   0.00932   0.00922   1.96655
   A22        1.91256   0.00110   0.00000   0.01010   0.01011   1.92267
   A23        1.95862   0.00033   0.00000   0.00985   0.00976   1.96838
   A24        1.87837  -0.00120   0.00000  -0.01986  -0.01985   1.85852
   A25        1.85596  -0.00137   0.00000  -0.00416  -0.00411   1.85185
   A26        1.94069   0.00062   0.00000   0.00547   0.00543   1.94612
   A27        1.92693   0.00092   0.00000   0.00833   0.00832   1.93525
   A28        1.92693   0.00092   0.00000   0.00832   0.00832   1.93525
   A29        1.94068   0.00062   0.00000   0.00546   0.00543   1.94611
   A30        1.87366  -0.00164   0.00000  -0.02262  -0.02259   1.85106
    D1       -0.57994   0.00062   0.00000   0.01061   0.01064  -0.56930
    D2        1.47504   0.00004   0.00000  -0.00071  -0.00069   1.47435
    D3       -2.69937  -0.00094   0.00000  -0.01732  -0.01735  -2.71672
    D4        1.47910   0.00145   0.00000   0.01807   0.01810   1.49720
    D5       -2.74911   0.00087   0.00000   0.00676   0.00677  -2.74234
    D6       -0.64033  -0.00011   0.00000  -0.00985  -0.00989  -0.65023
    D7       -2.71544  -0.00017   0.00000  -0.00762  -0.00761  -2.72305
    D8       -0.66046  -0.00074   0.00000  -0.01894  -0.01894  -0.67940
    D9        1.44831  -0.00172   0.00000  -0.03555  -0.03560   1.41271
   D10        0.22157  -0.00044   0.00000  -0.00483  -0.00482   0.21675
   D11       -1.87670  -0.00106   0.00000  -0.01543  -0.01544  -1.89214
   D12        2.32871  -0.00001   0.00000   0.00392   0.00393   2.33264
   D13       -1.84128   0.00004   0.00000   0.00122   0.00122  -1.84006
   D14        2.34363  -0.00058   0.00000  -0.00938  -0.00940   2.33424
   D15        0.26586   0.00047   0.00000   0.00996   0.00997   0.27583
   D16        2.35624   0.00060   0.00000   0.01307   0.01310   2.36934
   D17        0.25797  -0.00002   0.00000   0.00247   0.00248   0.26045
   D18       -1.81981   0.00104   0.00000   0.02182   0.02184  -1.79796
   D19        0.71650  -0.00028   0.00000  -0.01124  -0.01135   0.70515
   D20       -1.33734  -0.00069   0.00000  -0.00942  -0.00949  -1.34683
   D21        2.83427   0.00077   0.00000   0.01390   0.01390   2.84818
   D22       -1.33734  -0.00069   0.00000  -0.00942  -0.00949  -1.34683
   D23        2.89200  -0.00111   0.00000  -0.00760  -0.00762   2.88438
   D24        0.78043   0.00035   0.00000   0.01572   0.01577   0.79620
   D25        2.83427   0.00077   0.00000   0.01390   0.01390   2.84818
   D26        0.78043   0.00035   0.00000   0.01571   0.01577   0.79620
   D27       -1.33114   0.00181   0.00000   0.03903   0.03916  -1.29198
   D28       -0.57998   0.00062   0.00000   0.01060   0.01064  -0.56935
   D29        1.47905   0.00145   0.00000   0.01807   0.01809   1.49715
   D30       -2.71548  -0.00017   0.00000  -0.00763  -0.00762  -2.72310
   D31        1.47500   0.00004   0.00000  -0.00071  -0.00069   1.47431
   D32       -2.74915   0.00087   0.00000   0.00675   0.00677  -2.74239
   D33       -0.66050  -0.00074   0.00000  -0.01894  -0.01894  -0.67944
   D34       -2.69941  -0.00094   0.00000  -0.01732  -0.01736  -2.71677
   D35       -0.64038  -0.00011   0.00000  -0.00985  -0.00990  -0.65027
   D36        1.44828  -0.00172   0.00000  -0.03555  -0.03561   1.41267
   D37        0.22164  -0.00044   0.00000  -0.00482  -0.00481   0.21683
   D38        2.32879  -0.00001   0.00000   0.00392   0.00393   2.33272
   D39       -1.87662  -0.00106   0.00000  -0.01543  -0.01543  -1.89206
   D40       -1.84121   0.00004   0.00000   0.00122   0.00123  -1.83998
   D41        0.26594   0.00047   0.00000   0.00997   0.00997   0.27592
   D42        2.34372  -0.00058   0.00000  -0.00938  -0.00939   2.33432
   D43        2.35631   0.00060   0.00000   0.01308   0.01311   2.36941
   D44       -1.81973   0.00104   0.00000   0.02182   0.02185  -1.79788
   D45        0.25804  -0.00002   0.00000   0.00247   0.00248   0.26053
         Item               Value     Threshold  Converged?
 Maximum Force            0.017018     0.000450     NO 
 RMS     Force            0.003536     0.000300     NO 
 Maximum Displacement     0.070422     0.001800     NO 
 RMS     Displacement     0.022687     0.001200     NO 
 Predicted change in Energy=-2.216263D-03
 Lowest energy point so far.  Saving SCF results.
 GradGradGradGradGradGradGradGradGradGradGradGradGradGradGradGradGradGrad

 Leave Link  103 at Fri Mar 20 17:20:18 2026, MaxMem=   536870912 cpu:         0.0
 (Enter C:\G09W\l202.exe)
                          Input orientation:                          
 ---------------------------------------------------------------------
 Center     Atomic      Atomic             Coordinates (Angstroms)
 Number     Number       Type             X           Y           Z
 ---------------------------------------------------------------------
      1          6           0       -0.344891    1.246736    0.119950
      2          6           0        1.048326    0.705474   -0.265630
      3          6           0        1.025344   -0.746641    0.241730
      4          6           0       -0.396761   -1.232010   -0.111420
      5          6           0       -1.307019    0.025943    0.015084
      6          1           0       -0.317234    1.618966    1.151933
      7          1           0       -0.658845    2.089401   -0.506245
      8          1           0        1.168673    0.711004   -1.357449
      9          1           0        1.868966    1.299264    0.153887
     10          1           0        1.170487   -0.757444    1.330491
     11          1           0        1.811897   -1.372334   -0.196305
     12          1           0       -0.407676   -1.604523   -1.143615
     13          1           0       -0.729393   -2.061870    0.522189
     14          1           0       -1.974540    0.113644   -0.849640
     15          1           0       -1.957334   -0.035609    0.895041
 ---------------------------------------------------------------------
                    Distance matrix (angstroms):
                    1          2          3          4          5
     1  C    0.000000
     2  C    1.543596   0.000000
     3  C    2.421967   1.538369   0.000000
     4  C    2.490061   2.421962   1.543594   0.000000
     5  C    1.557891   2.467430   2.467422   1.557889   0.000000
     6  H    1.097410   2.169956   2.868289   3.119367   2.193131
     7  H    1.095797   2.210788   3.382173   3.355048   2.224809
     8  H    2.181878   1.098445   2.168558   2.788991   2.912422
     9  H    2.214740   1.096372   2.214755   3.407530   3.424543
    10  H    2.789000   2.168561   1.098446   2.181877   2.912392
    11  H    3.407533   2.214754   1.096372   2.214739   3.424544
    12  H    3.119329   2.868254   2.169951   1.097411   2.193130
    13  H    3.355072   3.382179   2.210789   1.095797   2.224807
    14  H    2.209017   3.135131   3.306128   2.201168   1.095912
    15  H    2.201170   3.306108   3.135083   2.209010   1.095912
                    6          7          8          9         10
     6  H    0.000000
     7  H    1.757146   0.000000
     8  H    3.054393   2.442202   0.000000
     9  H    2.424413   2.729455   1.766521   0.000000
    10  H    2.809364   3.850271   3.062901   2.470287   0.000000
    11  H    3.911371   4.264299   2.470281   2.695056   1.766522
    12  H    3.958359   3.756914   2.809317   3.911341   3.054396
    13  H    3.756994   4.277348   3.850262   4.264310   2.442217
    14  H    3.003157   2.398455   3.239521   4.145516   3.924661
    15  H    2.343830   2.857507   3.924673   4.119681   3.239433
                   11         12         13         14         15
    11  H    0.000000
    12  H    2.424420   0.000000
    13  H    2.729441   1.757148   0.000000
    14  H    4.119719   2.343840   2.857476   0.000000
    15  H    4.145476   3.003173   2.398455   1.751138   0.000000
 Stoichiometry    C5H10
 Framework group  C1[X(C5H10)]
 Deg. of freedom    39
 Full point group                 C1      NOp   1
 RotChk:  IX=3 Diff= 4.30D-03
 Largest Abelian subgroup         C1      NOp   1
 Largest concise Abelian subgroup C1      NOp   1
                         Standard orientation:                         
 ---------------------------------------------------------------------
 Center     Atomic      Atomic             Coordinates (Angstroms)
 Number     Number       Type             X           Y           Z
 ---------------------------------------------------------------------
      1          6           0        0.373681   -1.237688    0.136050
      2          6           0       -1.034204   -0.729905   -0.241717
      3          6           0       -1.033761    0.730526    0.241728
      4          6           0        0.374418    1.237460   -0.136073
      5          6           0        1.310489   -0.000389    0.000012
      6          1           0        0.365208   -1.593369    1.174187
      7          1           0        0.696803   -2.084298   -0.480079
      8          1           0       -1.167004   -0.755711   -1.331800
      9          1           0       -1.838189   -1.332491    0.197067
     10          1           0       -1.166521    0.756416    1.331814
     11          1           0       -1.837393    1.333593   -0.197041
     12          1           0        0.366144    1.593095   -1.174227
     13          1           0        0.698051    2.083906    0.480014
     14          1           0        1.969580   -0.089358   -0.871026
     15          1           0        1.969582    0.088196    0.871087
 ---------------------------------------------------------------------
 Rotational constants (GHZ):      6.4420806      6.4363830      3.7044986
 Leave Link  202 at Fri Mar 20 17:20:18 2026, MaxMem=   536870912 cpu:         0.0
 (Enter C:\G09W\l301.exe)
 Standard basis: 6-31G(d) (6D, 7F)
 Ernie: Thresh=  0.10000D-02 Tol=  0.10000D-05 Strict=F.
 There are    95 symmetry adapted cartesian basis functions of A   symmetry.
 There are    95 symmetry adapted basis functions of A   symmetry.
    95 basis functions,   180 primitive gaussians,    95 cartesian basis functions
    20 alpha electrons       20 beta electrons
       nuclear repulsion energy       186.6566378398 Hartrees.
 IExCor=  402 DFT=T Ex+Corr=B3LYP ExCW=0 ScaHFX=  0.200000
 ScaDFX=  0.800000  0.720000  1.000000  0.810000 ScalE2=  1.000000  1.000000
 IRadAn=      0 IRanWt=     -1 IRanGd=            0 ICorTp=0 IEmpDi=  4
 NAtoms=   15 NActive=   15 NUniq=   15 SFac= 1.00D+00 NAtFMM=   60 NAOKFM=F Big=F
 Integral buffers will be    131072 words long.
 Raffenetti 2 integral format.
 Two-electron integral symmetry is turned on.
 Leave Link  301 at Fri Mar 20 17:20:18 2026, MaxMem=   536870912 cpu:         0.0
 (Enter C:\G09W\l302.exe)
 NPDir=0 NMtPBC=     1 NCelOv=     1 NCel=       1 NClECP=     1 NCelD=      1
         NCelK=      1 NCelE2=     1 NClLst=     1 CellRange=     0.0.
 One-electron integrals computed using PRISM.
 NBasis=    95 RedAO= T EigKep=  3.64D-03  NBF=    95
 NBsUse=    95 1.00D-06 EigRej= -1.00D+00 NBFU=    95
 Precomputing XC quadrature grid using
 IXCGrd= 4 IRadAn=           0 IRanWt=          -1 IRanGd=           0 AccXCQ= 0.00D+00.
 Generated NRdTot=       0 NPtTot=           0 NUsed=           0 NTot=          32
 NSgBfM=    95    95    95    95    95 MxSgAt=    15 MxSgA2=    15.
 Leave Link  302 at Fri Mar 20 17:20:19 2026, MaxMem=   536870912 cpu:         1.0
 (Enter C:\G09W\l303.exe)
 DipDrv:  MaxL=1.
 Leave Link  303 at Fri Mar 20 17:20:19 2026, MaxMem=   536870912 cpu:         0.0
 (Enter C:\G09W\l401.exe)
 Initial guess from the checkpoint file:  "cyclopentane_rdkit.chk"
 B after Tr=     0.000000    0.000000    0.000000
         Rot=    0.999999   -0.001143    0.000000    0.000234 Ang=  -0.13 deg.
 Guess basis will be translated and rotated to current coordinates.
 JPrj=2 DoOrth=T DoCkMO=T.
 Generating alternative initial guess.
 ExpMin= 1.61D-01 ExpMax= 3.05D+03 ExpMxC= 4.57D+02 IAcc=1 IRadAn=         1 AccDes= 0.00D+00
 Harris functional with IExCor=  402 and IRadAn=       1 diagonalized for initial guess.
 HarFok:  IExCor=  402 AccDes= 0.00D+00 IRadAn=         1 IDoV= 1 UseB2=F ITyADJ=14
 ICtDFT=  3500011 ScaDFX=  1.000000  1.000000  1.000000  1.000000
 FoFCou: FMM=F IPFlag=           0 FMFlag=      100000 FMFlg1=           0
         NFxFlg=           0 DoJE=T BraDBF=F KetDBF=T FulRan=T
         wScrn=  0.000000 ICntrl=     500 IOpCl=  0 I1Cent=   200000004 NGrid=           0
         NMat0=    1 NMatS0=      1 NMatT0=    0 NMatD0=    1 NMtDS0=    0 NMtDT0=    0
 Petite list used in FoFCou.
 Harris En= -196.607458181930    
 Leave Link  401 at Fri Mar 20 17:20:20 2026, MaxMem=   536870912 cpu:         1.0
 (Enter C:\G09W\l502.exe)
 Closed shell SCF:
 Using DIIS extrapolation, IDIIS=  1040.
 Integral symmetry usage will be decided dynamically.
 Keep R1 ints in memory in canonical form, NReq=11361312.
 IVT=       46930 IEndB=       46930 NGot=   536870912 MDV=   526424903
 LenX=   526424903 LenY=   526415437
 Requested convergence on RMS density matrix=1.00D-08 within 128 cycles.
 Requested convergence on MAX density matrix=1.00D-06.
 Requested convergence on             energy=1.00D-06.
 No special actions if energy rises.
 FoFCou: FMM=F IPFlag=           0 FMFlag=           0 FMFlg1=           0
         NFxFlg=           0 DoJE=F BraDBF=F KetDBF=F FulRan=T
         wScrn=  0.000000 ICntrl=     600 IOpCl=  0 I1Cent=           0 NGrid=           0
         NMat0=    1 NMatS0=   4560 NMatT0=    0 NMatD0=    1 NMtDS0=    0 NMtDT0=    0
 Symmetry not used in FoFCou.
 Integral accuracy reduced to 1.0D-05 until final iterations.

 Cycle   1  Pass 0  IDiag  1:
 E= -196.556464258878    
 DIIS: error= 1.95D-03 at cycle   1 NSaved=   1.
 NSaved= 1 IEnMin= 1 EnMin= -196.556464258878     IErMin= 1 ErrMin= 1.95D-03
 ErrMax= 1.95D-03  0.00D+00 EMaxC= 1.00D-01 BMatC= 3.86D-04 BMatP= 3.86D-04
 IDIUse=3 WtCom= 9.80D-01 WtEn= 1.95D-02
 Coeff-Com:  0.100D+01
 Coeff-En:   0.100D+01
 Coeff:      0.100D+01
 Gap=     1.893 Goal=   None    Shift=    0.000
 GapD=    1.893 DampG=2.000 DampE=1.000 DampFc=2.0000 IDamp=-1.
 RMSDP=3.07D-04 MaxDP=3.82D-03              OVMax= 6.56D-03

 Cycle   2  Pass 0  IDiag  1:
 E= -196.556904285318     Delta-E=       -0.000440026441 Rises=F Damp=F
 DIIS: error= 8.88D-04 at cycle   2 NSaved=   2.
 NSaved= 2 IEnMin= 2 EnMin= -196.556904285318     IErMin= 2 ErrMin= 8.88D-04
 ErrMax= 8.88D-04  0.00D+00 EMaxC= 1.00D-01 BMatC= 9.08D-05 BMatP= 3.86D-04
 IDIUse=3 WtCom= 9.91D-01 WtEn= 8.88D-03
 Coeff-Com:  0.262D+00 0.738D+00
 Coeff-En:   0.000D+00 0.100D+01
 Coeff:      0.260D+00 0.740D+00
 Gap=     0.395 Goal=   None    Shift=    0.000
 RMSDP=1.63D-04 MaxDP=1.99D-03 DE=-4.40D-04 OVMax= 2.94D-03

 Cycle   3  Pass 0  IDiag  1:
 E= -196.556949175278     Delta-E=       -0.000044889959 Rises=F Damp=F
 DIIS: error= 6.23D-04 at cycle   3 NSaved=   3.
 NSaved= 3 IEnMin= 3 EnMin= -196.556949175278     IErMin= 3 ErrMin= 6.23D-04
 ErrMax= 6.23D-04  0.00D+00 EMaxC= 1.00D-01 BMatC= 4.22D-05 BMatP= 9.08D-05
 IDIUse=3 WtCom= 9.94D-01 WtEn= 6.23D-03
 Coeff-Com: -0.125D-01 0.403D+00 0.610D+00
 Coeff-En:   0.000D+00 0.341D+00 0.659D+00
 Coeff:     -0.124D-01 0.402D+00 0.610D+00
 Gap=     0.394 Goal=   None    Shift=    0.000
 RMSDP=7.67D-05 MaxDP=8.79D-04 DE=-4.49D-05 OVMax= 1.31D-03

 Cycle   4  Pass 0  IDiag  1:
 E= -196.556992409318     Delta-E=       -0.000043234040 Rises=F Damp=F
 DIIS: error= 5.16D-05 at cycle   4 NSaved=   4.
 NSaved= 4 IEnMin= 4 EnMin= -196.556992409318     IErMin= 4 ErrMin= 5.16D-05
 ErrMax= 5.16D-05  0.00D+00 EMaxC= 1.00D-01 BMatC= 1.87D-07 BMatP= 4.22D-05
 IDIUse=1 WtCom= 1.00D+00 WtEn= 0.00D+00
 Coeff-Com: -0.670D-02 0.830D-01 0.163D+00 0.761D+00
 Coeff:     -0.670D-02 0.830D-01 0.163D+00 0.761D+00
 Gap=     0.394 Goal=   None    Shift=    0.000
 RMSDP=5.38D-06 MaxDP=6.03D-05 DE=-4.32D-05 OVMax= 8.76D-05

 Initial convergence to 1.0D-05 achieved.  Increase integral accuracy.
 Cycle   5  Pass 1  IDiag  1:
 E= -196.557051771401     Delta-E=       -0.000059362083 Rises=F Damp=F
 DIIS: error= 2.00D-05 at cycle   1 NSaved=   1.
 NSaved= 1 IEnMin= 1 EnMin= -196.557051771401     IErMin= 1 ErrMin= 2.00D-05
 ErrMax= 2.00D-05  0.00D+00 EMaxC= 1.00D-01 BMatC= 4.27D-08 BMatP= 4.27D-08
 IDIUse=1 WtCom= 1.00D+00 WtEn= 0.00D+00
 Coeff-Com:  0.100D+01
 Coeff:      0.100D+01
 Gap=     0.394 Goal=   None    Shift=    0.000
 RMSDP=5.38D-06 MaxDP=6.03D-05 DE=-5.94D-05 OVMax= 7.12D-05

 Cycle   6  Pass 1  IDiag  1:
 E= -196.557051825927     Delta-E=       -0.000000054526 Rises=F Damp=F
 DIIS: error= 4.34D-06 at cycle   2 NSaved=   2.
 NSaved= 2 IEnMin= 2 EnMin= -196.557051825927     IErMin= 2 ErrMin= 4.34D-06
 ErrMax= 4.34D-06  0.00D+00 EMaxC= 1.00D-01 BMatC= 1.76D-09 BMatP= 4.27D-08
 IDIUse=1 WtCom= 1.00D+00 WtEn= 0.00D+00
 Coeff-Com:  0.406D-01 0.959D+00
 Coeff:      0.406D-01 0.959D+00
 Gap=     0.394 Goal=   None    Shift=    0.000
 RMSDP=9.54D-07 MaxDP=1.07D-05 DE=-5.45D-08 OVMax= 1.76D-05

 Cycle   7  Pass 1  IDiag  1:
 E= -196.557051826445     Delta-E=       -0.000000000518 Rises=F Damp=F
 DIIS: error= 3.54D-06 at cycle   3 NSaved=   3.
 NSaved= 3 IEnMin= 3 EnMin= -196.557051826445     IErMin= 3 ErrMin= 3.54D-06
 ErrMax= 3.54D-06  0.00D+00 EMaxC= 1.00D-01 BMatC= 1.34D-09 BMatP= 1.76D-09
 IDIUse=1 WtCom= 1.00D+00 WtEn= 0.00D+00
 Coeff-Com: -0.150D-01 0.466D+00 0.549D+00
 Coeff:     -0.150D-01 0.466D+00 0.549D+00
 Gap=     0.394 Goal=   None    Shift=    0.000
 RMSDP=4.41D-07 MaxDP=7.28D-06 DE=-5.18D-10 OVMax= 9.18D-06

 Cycle   8  Pass 1  IDiag  1:
 E= -196.557051827675     Delta-E=       -0.000000001229 Rises=F Damp=F
 DIIS: error= 9.89D-07 at cycle   4 NSaved=   4.
 NSaved= 4 IEnMin= 4 EnMin= -196.557051827675     IErMin= 4 ErrMin= 9.89D-07
 ErrMax= 9.89D-07  0.00D+00 EMaxC= 1.00D-01 BMatC= 5.93D-11 BMatP= 1.34D-09
 IDIUse=1 WtCom= 1.00D+00 WtEn= 0.00D+00
 Coeff-Com: -0.932D-02 0.153D+00 0.248D+00 0.608D+00
 Coeff:     -0.932D-02 0.153D+00 0.248D+00 0.608D+00
 Gap=     0.394 Goal=   None    Shift=    0.000
 RMSDP=8.93D-08 MaxDP=1.55D-06 DE=-1.23D-09 OVMax= 1.59D-06

 Cycle   9  Pass 1  IDiag  1:
 E= -196.557051827737     Delta-E=       -0.000000000062 Rises=F Damp=F
 DIIS: error= 6.64D-08 at cycle   5 NSaved=   5.
 NSaved= 5 IEnMin= 5 EnMin= -196.557051827737     IErMin= 5 ErrMin= 6.64D-08
 ErrMax= 6.64D-08  0.00D+00 EMaxC= 1.00D-01 BMatC= 2.94D-13 BMatP= 5.93D-11
 IDIUse=1 WtCom= 1.00D+00 WtEn= 0.00D+00
 Coeff-Com: -0.479D-03 0.219D-02 0.208D-02 0.573D-01 0.939D+00
 Coeff:     -0.479D-03 0.219D-02 0.208D-02 0.573D-01 0.939D+00
 Gap=     0.394 Goal=   None    Shift=    0.000
 RMSDP=9.16D-09 MaxDP=1.34D-07 DE=-6.25D-11 OVMax= 1.63D-07

 SCF Done:  E(RB3LYP) =  -196.557051828     A.U. after    9 cycles
            NFock=  9  Conv=0.92D-08     -V/T= 2.0104
 KE= 1.945319011536D+02 PE=-8.272182082022D+02 EE= 2.494726173811D+02
 Leave Link  502 at Fri Mar 20 17:20:27 2026, MaxMem=   536870912 cpu:         7.0
 (Enter C:\G09W\l701.exe)
 Compute integral first derivatives.
 ... and contract with generalized density number  0.
 Leave Link  701 at Fri Mar 20 17:20:27 2026, MaxMem=   536870912 cpu:         0.0
 (Enter C:\G09W\l702.exe)
 L702 exits ... SP integral derivatives will be done elsewhere.
 Leave Link  702 at Fri Mar 20 17:20:27 2026, MaxMem=   536870912 cpu:         0.0
 (Enter C:\G09W\l703.exe)
 Compute integral first derivatives, UseDBF=F ICtDFT=           0.
 Integral derivatives from FoFJK, PRISM(SPDF).
 Calling FoFJK, ICntrl=      2127 FMM=F ISym2X=0 I1Cent= 0 IOpClX= 0 NMat=1 NMatS=1 NMatT=0.
 FoFJK:  IHMeth= 1 ICntrl=    2127 DoSepK=F KAlg= 0 I1Cent=   0 FoldK=F
 IRaf=         0 NMat=   1 IRICut=       1 DoRegI=T DoRafI=F ISym2E= 0.
 FoFCou: FMM=F IPFlag=           0 FMFlag=      100000 FMFlg1=         800
         NFxFlg=           0 DoJE=F BraDBF=F KetDBF=F FulRan=T
         wScrn=  0.000000 ICntrl=    2127 IOpCl=  0 I1Cent=           0 NGrid=           0
         NMat0=    1 NMatS0=      1 NMatT0=    0 NMatD0=    1 NMtDS0=    0 NMtDT0=    0
 Symmetry not used in FoFCou.
 Leave Link  703 at Fri Mar 20 17:20:29 2026, MaxMem=   536870912 cpu:         2.0
 (Enter C:\G09W\l716.exe)
 Dipole        = 3.00660052D-03-1.09268251D-06-3.71870391D-07
 ***** Axes restored to original set *****
 -------------------------------------------------------------------
 Center     Atomic                   Forces (Hartrees/Bohr)
 Number     Number              X              Y              Z
 -------------------------------------------------------------------
      1        6           0.000644577   -0.000222939    0.000287792
      2        6          -0.000541923   -0.000750893   -0.000356003
      3        6          -0.000500625    0.000771893    0.000368186
      4        6           0.000645817    0.000197139   -0.000302128
      5        6          -0.000094112    0.000001393    0.000000354
      6        1          -0.000270103   -0.000517344    0.000125219
      7        1           0.000018835   -0.000528612   -0.000231392
      8        1          -0.000179822    0.000090168   -0.000243466
      9        1          -0.000330694   -0.000195482   -0.000060719
     10        1          -0.000177963   -0.000082835    0.000247471
     11        1          -0.000321047    0.000208300    0.000068356
     12        1          -0.000252247    0.000527460   -0.000119189
     13        1           0.000045346    0.000527284    0.000230603
     14        1           0.000655412    0.000033810   -0.000220448
     15        1           0.000658547   -0.000059341    0.000205364
 -------------------------------------------------------------------
 Cartesian Forces:  Max     0.000771893 RMS     0.000362395
 Leave Link  716 at Fri Mar 20 17:20:29 2026, MaxMem=   536870912 cpu:         0.0
 (Enter C:\G09W\l103.exe)

 GradGradGradGradGradGradGradGradGradGradGradGradGradGradGradGradGradGrad
 Berny optimization.
 Using GEDIIS/GDIIS optimizer.
 FormGI is forming the generalized inverse of G from B-inverse, IUseBI=4.
 Internal  Forces:  Max     0.001224169 RMS     0.000303774
 Search for a local minimum.
 Step number   2 out of a maximum of  100
 All quantities printed in internal units (Hartrees-Bohrs-Radians)
 RMS Force = .30377D-03 SwitMx=.10000D-02 MixMth= 2
 Mixed Optimization -- En-DIIS/RFO-DIIS
 Update second derivatives using D2CorX and points    1    2
 DE= -1.92D-03 DEPred=-2.22D-03 R= 8.66D-01
 TightC=F SS=  1.41D+00  RLast= 1.61D-01 DXNew= 5.0454D-01 4.8259D-01
 Trust test= 8.66D-01 RLast= 1.61D-01 DXMaxT set to 4.83D-01
 ITU=  1  0
 Use linear search instead of GDIIS.
     Eigenvalues ---    0.00447   0.00664   0.02132   0.02153   0.04162
     Eigenvalues ---    0.04260   0.04581   0.04923   0.05195   0.05314
     Eigenvalues ---    0.05665   0.05724   0.06234   0.06986   0.07011
     Eigenvalues ---    0.07244   0.07319   0.07344   0.08868   0.08880
     Eigenvalues ---    0.11188   0.11393   0.20303   0.20661   0.27830
     Eigenvalues ---    0.27859   0.29292   0.29858   0.31359   0.34057
     Eigenvalues ---    0.34059   0.34072   0.34080   0.34194   0.34208
     Eigenvalues ---    0.34337   0.34354   0.34394   0.34543
 RFO step:  Lambda=-3.45859427D-05 EMin= 4.47340766D-03
 Quartic linear search produced a step of -0.08654.
 Iteration  1 RMS(Cart)=  0.00618953 RMS(Int)=  0.00001929
 Iteration  2 RMS(Cart)=  0.00002337 RMS(Int)=  0.00000945
 Iteration  3 RMS(Cart)=  0.00000000 RMS(Int)=  0.00000945
 ITry= 1 IFail=0 DXMaxC= 2.05D-02 DCOld= 1.00D+10 DXMaxT= 4.83D-01 DXLimC= 3.00D+00 Rises=F
 Variable       Old X    -DE/DX   Delta X   Delta X   Delta X     New X
                                 (Linear)    (Quad)   (Total)
    R1        2.91697  -0.00095  -0.00370   0.00094  -0.00276   2.91422
    R2        2.94399  -0.00122  -0.00492   0.00202  -0.00289   2.94109
    R3        2.07381  -0.00006  -0.00013  -0.00001  -0.00014   2.07366
    R4        2.07076  -0.00029  -0.00027  -0.00047  -0.00074   2.07002
    R5        2.90710  -0.00085  -0.00323   0.00024  -0.00300   2.90410
    R6        2.07576   0.00022  -0.00033   0.00094   0.00061   2.07637
    R7        2.07184  -0.00037  -0.00045  -0.00051  -0.00096   2.07089
    R8        2.91697  -0.00095  -0.00370   0.00095  -0.00275   2.91422
    R9        2.07576   0.00022  -0.00033   0.00094   0.00061   2.07637
   R10        2.07184  -0.00037  -0.00045  -0.00051  -0.00096   2.07089
   R11        2.94398  -0.00122  -0.00492   0.00202  -0.00289   2.94109
   R12        2.07381  -0.00006  -0.00013  -0.00001  -0.00014   2.07366
   R13        2.07076  -0.00029  -0.00027  -0.00047  -0.00074   2.07002
   R14        2.07097  -0.00022  -0.00008  -0.00051  -0.00059   2.07039
   R15        2.07097  -0.00022  -0.00008  -0.00051  -0.00059   2.07039
    A1        1.83986   0.00002  -0.00009  -0.00162  -0.00174   1.83812
    A2        1.90826   0.00020   0.00086   0.00213   0.00299   1.91125
    A3        1.96655  -0.00007  -0.00080  -0.00013  -0.00092   1.96562
    A4        1.92267  -0.00023  -0.00087  -0.00132  -0.00219   1.92049
    A5        1.96838  -0.00018  -0.00084  -0.00170  -0.00254   1.96584
    A6        1.85852   0.00025   0.00172   0.00268   0.00439   1.86290
    A7        1.80814  -0.00015  -0.00057  -0.00295  -0.00355   1.80459
    A8        1.92347   0.00000  -0.00004   0.00072   0.00068   1.92415
    A9        1.97153  -0.00005  -0.00092  -0.00029  -0.00118   1.97034
   A10        1.91156   0.00025   0.00113   0.00202   0.00315   1.91471
   A11        1.97819  -0.00007  -0.00128   0.00062  -0.00064   1.97755
   A12        1.87088   0.00003   0.00164  -0.00003   0.00159   1.87247
   A13        1.80814  -0.00015  -0.00057  -0.00295  -0.00355   1.80459
   A14        1.91156   0.00025   0.00113   0.00202   0.00315   1.91471
   A15        1.97818  -0.00007  -0.00128   0.00063  -0.00063   1.97755
   A16        1.92347   0.00000  -0.00004   0.00071   0.00068   1.92415
   A17        1.97153  -0.00005  -0.00092  -0.00029  -0.00118   1.97035
   A18        1.87088   0.00003   0.00164  -0.00003   0.00160   1.87248
   A19        1.83985   0.00002  -0.00009  -0.00162  -0.00174   1.83811
   A20        1.90825   0.00020   0.00086   0.00213   0.00299   1.91124
   A21        1.96655  -0.00007  -0.00080  -0.00013  -0.00092   1.96563
   A22        1.92267  -0.00023  -0.00087  -0.00132  -0.00219   1.92048
   A23        1.96838  -0.00018  -0.00084  -0.00170  -0.00254   1.96584
   A24        1.85852   0.00025   0.00172   0.00268   0.00439   1.86291
   A25        1.85185   0.00002   0.00036  -0.00151  -0.00117   1.85068
   A26        1.94612  -0.00012  -0.00047  -0.00115  -0.00162   1.94451
   A27        1.93525  -0.00007  -0.00072  -0.00017  -0.00089   1.93436
   A28        1.93525  -0.00007  -0.00072  -0.00016  -0.00088   1.93437
   A29        1.94611  -0.00012  -0.00047  -0.00115  -0.00161   1.94450
   A30        1.85106   0.00036   0.00195   0.00406   0.00601   1.85708
    D1       -0.56930  -0.00024  -0.00092  -0.01045  -0.01136  -0.58066
    D2        1.47435  -0.00003   0.00006  -0.00936  -0.00930   1.46505
    D3       -2.71672  -0.00003   0.00150  -0.00909  -0.00758  -2.72430
    D4        1.49720  -0.00041  -0.00157  -0.01181  -0.01338   1.48381
    D5       -2.74234  -0.00020  -0.00059  -0.01072  -0.01132  -2.75366
    D6       -0.65023  -0.00019   0.00086  -0.01046  -0.00960  -0.65983
    D7       -2.72305   0.00000   0.00066  -0.00714  -0.00648  -2.72953
    D8       -0.67940   0.00021   0.00164  -0.00605  -0.00441  -0.68381
    D9        1.41271   0.00022   0.00308  -0.00578  -0.00270   1.41001
   D10        0.21675   0.00011   0.00042   0.00393   0.00434   0.22110
   D11       -1.89214   0.00025   0.00134   0.00574   0.00707  -1.88506
   D12        2.33264  -0.00007  -0.00034   0.00151   0.00116   2.33380
   D13       -1.84006  -0.00002  -0.00011   0.00300   0.00290  -1.83716
   D14        2.33424   0.00013   0.00081   0.00481   0.00563   2.33986
   D15        0.27583  -0.00020  -0.00086   0.00058  -0.00029   0.27554
   D16        2.36934  -0.00007  -0.00113   0.00162   0.00049   2.36982
   D17        0.26045   0.00008  -0.00021   0.00343   0.00322   0.26366
   D18       -1.79796  -0.00025  -0.00189  -0.00080  -0.00270  -1.80066
   D19        0.70515   0.00024   0.00098   0.01294   0.01392   0.71907
   D20       -1.34683   0.00020   0.00082   0.01274   0.01357  -1.33326
   D21        2.84818   0.00004  -0.00120   0.01096   0.00975   2.85792
   D22       -1.34683   0.00020   0.00082   0.01274   0.01356  -1.33327
   D23        2.88438   0.00017   0.00066   0.01254   0.01321   2.89759
   D24        0.79620   0.00000  -0.00136   0.01076   0.00939   0.80558
   D25        2.84818   0.00004  -0.00120   0.01095   0.00974   2.85792
   D26        0.79620   0.00000  -0.00136   0.01076   0.00939   0.80559
   D27       -1.29198  -0.00017  -0.00339   0.00898   0.00557  -1.28641
   D28       -0.56935  -0.00024  -0.00092  -0.01043  -0.01135  -0.58070
   D29        1.49715  -0.00041  -0.00157  -0.01180  -0.01337   1.48378
   D30       -2.72310   0.00000   0.00066  -0.00713  -0.00647  -2.72956
   D31        1.47431  -0.00003   0.00006  -0.00935  -0.00929   1.46502
   D32       -2.74239  -0.00020  -0.00059  -0.01072  -0.01131  -2.75370
   D33       -0.67944   0.00021   0.00164  -0.00605  -0.00441  -0.68385
   D34       -2.71677  -0.00003   0.00150  -0.00908  -0.00757  -2.72434
   D35       -0.65027  -0.00019   0.00086  -0.01045  -0.00959  -0.65987
   D36        1.41267   0.00022   0.00308  -0.00578  -0.00269   1.40998
   D37        0.21683   0.00011   0.00042   0.00391   0.00432   0.22115
   D38        2.33272  -0.00007  -0.00034   0.00149   0.00114   2.33387
   D39       -1.89206   0.00025   0.00134   0.00573   0.00706  -1.88500
   D40       -1.83998  -0.00002  -0.00011   0.00298   0.00288  -1.83710
   D41        0.27592  -0.00020  -0.00086   0.00056  -0.00030   0.27561
   D42        2.33432   0.00013   0.00081   0.00480   0.00561   2.33993
   D43        2.36941  -0.00007  -0.00113   0.00161   0.00047   2.36988
   D44       -1.79788  -0.00025  -0.00189  -0.00082  -0.00271  -1.80059
   D45        0.26053   0.00008  -0.00021   0.00342   0.00321   0.26373
         Item               Value     Threshold  Converged?
 Maximum Force            0.001224     0.000450     NO 
 RMS     Force            0.000304     0.000300     NO 
 Maximum Displacement     0.020478     0.001800     NO 
 RMS     Displacement     0.006196     0.001200     NO 
 Predicted change in Energy=-3.361903D-05
 Lowest energy point so far.  Saving SCF results.
 GradGradGradGradGradGradGradGradGradGradGradGradGradGradGradGradGradGrad

 Leave Link  103 at Fri Mar 20 17:20:29 2026, MaxMem=   536870912 cpu:         0.0
 (Enter C:\G09W\l202.exe)
                          Input orientation:                          
 ---------------------------------------------------------------------
 Center     Atomic      Atomic             Coordinates (Angstroms)
 Number     Number       Type             X           Y           Z
 ---------------------------------------------------------------------
      1          6           0       -0.342983    1.244650    0.122770
      2          6           0        1.046368    0.703009   -0.270317
      3          6           0        1.023598   -0.744102    0.246456
      4          6           0       -0.394836   -1.230002   -0.114280
      5          6           0       -1.304909    0.025901    0.015055
      6          1           0       -0.314387    1.610787    1.156825
      7          1           0       -0.658773    2.087432   -0.501658
      8          1           0        1.159728    0.704375   -1.363220
      9          1           0        1.868497    1.298112    0.143054
     10          1           0        1.161952   -0.750465    1.336460
     11          1           0        1.811727   -1.371170   -0.185468
     12          1           0       -0.404623   -1.596474   -1.148566
     13          1           0       -0.729348   -2.059898    0.517614
     14          1           0       -1.969568    0.116291   -0.851200
     15          1           0       -1.952443   -0.038445    0.896474
 ---------------------------------------------------------------------
                    Distance matrix (angstroms):
                    1          2          3          4          5
     1  C    0.000000
     2  C    1.542137   0.000000
     3  C    2.416190   1.536783   0.000000
     4  C    2.486520   2.416184   1.542137   0.000000
     5  C    1.556359   2.463415   2.463412   1.556358   0.000000
     6  H    1.097335   2.170818   2.857355   3.113239   2.190123
     7  H    1.095407   2.208541   3.377519   3.350387   2.221350
     8  H    2.181330   1.098767   2.169718   2.778189   2.904204
     9  H    2.212219   1.095865   2.212506   3.402978   3.421317
    10  H    2.778193   2.169718   1.098767   2.181328   2.904180
    11  H    3.402984   2.212509   1.095865   2.212220   3.421321
    12  H    3.113210   2.857327   2.170815   1.097336   2.190121
    13  H    3.350405   3.377522   2.208544   1.095406   2.221349
    14  H    2.206262   3.126905   3.302146   2.198940   1.095601
    15  H    2.198935   3.302124   3.126867   2.206257   1.095601
                    6          7          8          9         10
     6  H    0.000000
     7  H    1.759648   0.000000
     8  H    3.056996   2.441737   0.000000
     9  H    2.427031   2.725028   1.767411   0.000000
    10  H    2.790584   3.840231   3.066730   2.473882   0.000000
    11  H    3.900536   4.262074   2.473882   2.690022   1.767412
    12  H    3.950885   3.748899   2.790551   3.900511   3.056998
    13  H    3.748961   4.271328   3.840228   4.262080   2.441749
    14  H    3.000885   2.392856   3.224981   4.137148   3.917083
    15  H    2.339012   2.854419   3.917092   4.117476   3.224906
                   11         12         13         14         15
    11  H    0.000000
    12  H    2.427040   0.000000
    13  H    2.725020   1.759649   0.000000
    14  H    4.117516   2.339026   2.854400   0.000000
    15  H    4.137117   3.000899   2.392858   1.754595   0.000000
[...]
    D7       -2.73441   0.00000   0.00000   0.03439   0.03445  -2.69996
    D8       -0.69166  -0.00001   0.00000   0.03406   0.03407  -0.65759
    D9        1.40218  -0.00001   0.00000   0.03249   0.03255   1.43472
   D10        0.22257   0.00000   0.00000  -0.05421  -0.05420   0.16837
   D11       -1.88277   0.00000   0.00000  -0.06114  -0.06109  -1.94387
   D12        2.33448   0.00000   0.00000  -0.06190  -0.06194   2.27254
   D13       -1.83310   0.00000   0.00000  -0.05875  -0.05871  -1.89181
   D14        2.34474   0.00000   0.00000  -0.06568  -0.06560   2.27914
   D15        0.27881   0.00000   0.00000  -0.06644  -0.06644   0.21236
   D16        2.37294   0.00000   0.00000  -0.05657  -0.05660   2.31634
   D17        0.26760   0.00000   0.00000  -0.06350  -0.06349   0.20411
   D18       -1.79833   0.00001   0.00000  -0.06426  -0.06434  -1.86267
   D19        0.72412   0.00000   0.00000   0.00004  -0.00006   0.72407
   D20       -1.32533   0.00000   0.00000   0.00108   0.00105  -1.32428
   D21        2.86539   0.00000   0.00000  -0.00090  -0.00097   2.86442
   D22       -1.32536   0.00000   0.00000  -0.00094  -0.00097  -1.32633
   D23        2.90837   0.00000   0.00000   0.00010   0.00014   2.90851
   D24        0.81591   0.00000   0.00000  -0.00188  -0.00188   0.81403
   D25        2.86538   0.00000   0.00000   0.00110   0.00103   2.86641
   D26        0.81592   0.00000   0.00000   0.00214   0.00214   0.81807
   D27       -1.27654   0.00000   0.00000   0.00016   0.00013  -1.27641
   D28       -0.58457   0.00000   0.00000  -0.03394  -0.03390  -0.61846
   D29        1.47752   0.00000   0.00000  -0.03727  -0.03728   1.44024
   D30       -2.73441  -0.00001   0.00000  -0.03504  -0.03497  -2.76937
   D31        1.45816   0.00000   0.00000  -0.03374  -0.03375   1.42442
   D32       -2.76294   0.00000   0.00000  -0.03707  -0.03713  -2.80007
   D33       -0.69168  -0.00001   0.00000  -0.03484  -0.03482  -0.72650
   D34       -2.73118   0.00000   0.00000  -0.03216  -0.03214  -2.76332
   D35       -0.66910   0.00000   0.00000  -0.03550  -0.03552  -0.70462
   D36        1.40216  -0.00001   0.00000  -0.03326  -0.03321   1.36895
   D37        0.22255   0.00000   0.00000   0.05427   0.05427   0.27682
   D38        2.33448   0.00001   0.00000   0.06222   0.06218   2.39666
   D39       -1.88275  -0.00001   0.00000   0.06104   0.06108  -1.82166
   D40       -1.83312   0.00000   0.00000   0.05903   0.05907  -1.77404
   D41        0.27882   0.00001   0.00000   0.06699   0.06698   0.34580
   D42        2.34477  -0.00001   0.00000   0.06581   0.06589   2.41066
   D43        2.37294   0.00001   0.00000   0.05711   0.05707   2.43001
   D44       -1.79832   0.00001   0.00000   0.06506   0.06498  -1.73333
   D45        0.26763   0.00000   0.00000   0.06388   0.06389   0.33153
         Item               Value     Threshold  Converged?
 Maximum Force            0.000025     0.000450     YES
 RMS     Force            0.000006     0.000300     YES
 Maximum Displacement     0.096966     0.001800     NO 
 RMS     Displacement     0.029562     0.001200     NO 
 Predicted change in Energy=-7.542291D-07
 GradGradGradGradGradGradGradGradGradGradGradGradGradGradGradGradGradGrad

 Leave Link  103 at Fri Mar 20 17:22:12 2026, MaxMem=   536870912 cpu:         0.0
 (Enter C:\G09W\l9999.exe)
 1|1|UNPC-DESKTOP-GS7R1K3|Freq|RB3LYP|6-31G(d)|C5H10|1172|20-Mar-2026|0
 ||#P Geom=AllCheck Guess=TCheck SCRF=Check GenChk RB3LYP/6-31G(d) Freq
 ||cyclopentane rdkit||0,1|C,-0.3421294097,1.244470635,0.1238224292|C,1
 .0457044176,0.7021702181,-0.2718676619|C,1.0230168491,-0.743236519,0.2
 480097448|C,-0.3939999676,-1.2298623688,-0.1153340604|C,-1.3047434416,
 0.0258985199,0.0150386274|H,-0.3109853157,1.6062503577,1.1592281519|H,
 -0.6588575563,2.0892356734,-0.4972722764|H,1.153503459,0.6992018567,-1
 .3653729715|H,1.869976314,1.2987870042,0.1350200971|H,1.1560047804,-0.
 7450368863,1.3387399979|H,1.8133723914,-1.3719091968,-0.1774828967|H,-
 0.401109013,-1.5921211956,-1.151016499|H,-0.7296027274,-2.0616766132,0
 .5132821059|H,-1.9686126131,0.1170268364,-0.8515175685|H,-1.9515371673
 ,-0.0391983218,0.8967227801||Version=EM64W-G09RevD.01|State=1-A|HF=-19
 6.5570933|RMSD=5.936e-009|RMSF=1.725e-005|ZeroPoint=0.1413864|Thermal=
 0.145673|Dipole=-0.0024136,0.0000504,0.0000328|DipoleDeriv=0.061809,0.
 004759,0.0335317,-0.009922,0.09541,-0.0297449,0.0109369,0.0310051,0.16
 1362,0.0892308,0.018767,0.0423508,0.0096507,0.0724647,0.0446766,-0.028
 9372,-0.0081586,0.1601675,0.0878913,-0.0195644,-0.0388783,-0.0091902,0
 .0736602,0.0465106,0.0302359,-0.0088881,0.1604176,0.0611081,-0.0027032
 ,-0.0323634,0.0105679,0.0951239,-0.0286832,-0.0073651,0.0314774,0.1623
 387,0.0884944,-0.000893,0.000458,-0.0008956,0.0528891,-0.0164399,0.000
 4687,-0.0161383,0.157341,-0.0028836,-0.0209329,-0.0038362,-0.0130944,-
 0.0102896,-0.047101,0.0095233,-0.101053,-0.1520255,-0.008165,0.0617567
 ,-0.0277979,0.0479356,-0.1361882,0.0705002,-0.0326022,0.101562,-0.0082
 52,0.0136147,0.0217353,0.0081962,0.0229288,0.0068047,-0.0089746,0.0516
 335,0.0206117,-0.1847144,-0.1207638,-0.0984557,-0.0331175,-0.1022195,-
 0.0548228,-0.026541,-0.0573169,-0.0403466,0.0265409,0.0103613,-0.02140
 31,-0.0130572,-0.0232981,0.0085847,-0.0080168,-0.0552771,0.0232292,-0.
 1832389,-0.1106012,0.0997286,0.035242,0.1038208,-0.0628472,-0.0302744,
 0.0588758,-0.0449368,0.0244141,-0.0018921,0.0182588,-0.0014892,0.01166
 21,-0.0115599,-0.0474329,-0.0169819,-0.100983,-0.1517495,-0.0111738,-0
 .0643504,0.0306129,-0.0512434,-0.1317159,0.0704876,0.0366507,0.1016394
 ,-0.0097242,-0.0804131,0.0070286,-0.0821665,0.0237106,0.0006971,0.0068
 956,-0.1294981,0.0079999,-0.078992,-0.076617,-0.0037313,0.0823145,-0.0
 204133,0.0017892,0.0041382,0.1296536,0.0029798,-0.0838854|Polar=51.842
 2091,0.0006067,51.891536,-0.0527022,-0.0285045,47.3238151|PG=C01 [X(C5
 H10)]|NImag=1||0.41640800,-0.05434245,0.54979684,0.02911543,-0.0204600
 8,0.58725290,-0.15098401,0.03102595,0.02496564,0.52682133,0.03343090,-
 0.08514681,-0.01079189,0.08968640,0.47177987,0.02305900,-0.01251435,-0
 .09090243,0.02019653,0.02716556,0.57929112,-0.01003101,0.02561378,-0.0
 0946118,-0.07206277,-0.00372879,0.00011584,0.51882494,0.01763553,-0.02
 535784,0.00603769,0.00070816,-0.16447196,0.03388460,-0.09075116,0.4790
 5090,-0.00028952,-0.00627665,0.00706618,0.00065953,0.03394684,-0.09694
 485,-0.01777461,0.02996434,0.58016345,0.01110291,-0.00429547,-0.002115
 46,-0.01153687,-0.01803405,0.00046218,-0.15456005,-0.03096136,-0.02209
 215,0.41971188,0.00251668,-0.03395127,0.00003078,-0.02623704,-0.023601
 63,-0.00568465,-0.02863798,-0.08273940,-0.01090828,0.05901974,0.545326
 12,0.00189362,0.00002820,0.00092336,0.01009521,0.00605822,0.00683120,-
 0.02388987,-0.00904180,-0.08982634,-0.02603251,-0.02069837,0.58855724,
 -0.10571704,-0.04337795,-0.00817072,-0.03156876,-0.01661844,-0.0018757
 0,-0.03059886,0.01820328,0.00275623,-0.10218262,0.04243209,0.00838105,
 0.55005753,-0.04099283,-0.12316380,-0.00701112,-0.00864236,0.00488012,
 0.00209988,0.01009453,0.00381763,0.00179279,0.03998603,-0.12648072,-0.
 00826975,-0.00346262,0.38560630,-0.00265064,-0.00440542,-0.08174515,0.
 00647255,0.00763060,0.00329139,-0.00537556,0.00747319,0.00337690,0.002
 97161,-0.00551104,-0.08202150,0.00020765,-0.01676494,0.59750270,-0.046
 28106,0.00037034,-0.00928784,-0.00132408,0.00911539,0.03235989,0.00058
 090,-0.00086103,0.00038313,-0.00140415,-0.00007865,-0.00043924,-0.0038
 0165,-0.00828301,-0.01973060,0.05604337,0.00028727,-0.07759502,-0.0767
 0102,-0.00074649,-0.00290439,-0.01020865,-0.00039727,0.00046742,-0.000
 67736,-0.00112880,-0.00084840,0.00039798,-0.00304904,-0.00800554,-0.02
 277507,0.00409163,0.08096632,-0.00901481,-0.07665648,-0.28116901,0.000
 82082,-0.00168084,-0.00886241,-0.00050780,0.00018229,-0.00000213,-0.00
 003258,0.00003928,0.00006850,0.00019654,0.00117134,-0.00028926,0.00656
 447,0.08445076,0.30293747,-0.06935438,0.05830609,-0.04406389,-0.006196
 75,0.02269154,-0.01815430,-0.00581234,0.00123129,0.00238805,-0.0024437
 8,-0.00209449,0.00048138,0.00574993,-0.01610882,0.01167602,-0.00002507
 ,0.00026541,-0.00056920,0.07525453,0.05808227,-0.20121086,0.11604276,0
 .00151802,-0.00613429,0.00472456,0.00092059,-0.00118301,-0.00121882,-0
 .00122011,-0.00219410,0.00054318,0.00714844,-0.01520642,0.01233596,-0.
 00354969,0.00949837,-0.00585919,-0.06331048,0.21809547,-0.04496275,0.1
 1806938,-0.13955303,0.00322102,-0.00905677,0.00555689,0.00132135,-0.00
 120509,-0.00005570,0.00024028,-0.00151113,-0.00003807,0.00140255,-0.00
 443519,0.00187809,-0.00984717,0.02486050,-0.01880138,0.04848492,-0.125
 67837,0.14734646,-0.00298687,0.00203579,0.03078122,-0.05369806,-0.0039
 0399,0.02198648,-0.00044851,0.00098326,-0.00254069,0.00031205,-0.00009
 899,0.00036753,0.00061454,0.00046573,-0.00034999,-0.00533906,0.0014827
 0,0.00192589,0.00195418,-0.00029166,-0.00051355,0.05558089,0.00229115,
 -0.00212655,-0.01475554,-0.00392364,-0.04872578,-0.00303132,-0.0020408
 7,-0.00078557,0.03422910,0.00083055,0.00107566,0.00029308,-0.00009849,
 -0.00009135,-0.00010076,0.00359496,-0.00007266,-0.00077257,-0.00081143
 ,0.00047407,-0.00010156,-0.00129103,0.05431906,0.00049465,-0.00105312,
 -0.00730581,0.02176933,-0.00291216,-0.30056604,-0.00005774,0.00045164,
 -0.01192953,-0.00010992,-0.00060976,0.00025908,0.00009850,0.00002561,0
 .00001308,0.00170711,-0.00019297,0.00118957,0.00016768,-0.00033356,0.0
 0128351,-0.02558268,0.00125580,0.32680984,-0.01792893,-0.01621823,-0.0
 1039093,-0.19461653,-0.10630169,-0.07530760,0.00276007,0.00244414,0.00
 172240,-0.00082001,0.00135451,0.00020609,-0.00342831,0.00165133,0.0016
 4349,0.00167825,-0.00021722,0.00039214,-0.00063964,0.00051395,-0.00010
 385,0.00299785,0.00222852,0.00065061,0.21093272,0.01083165,0.00855023,
 0.00549555,-0.10630883,-0.12523665,-0.05437231,-0.02317916,-0.01302444
 ,-0.01297453,0.00031424,-0.00539966,0.00327774,0.00250141,-0.00195475,
 -0.00062452,-0.00086017,0.00075666,0.00036495,-0.00011956,-0.00023092,
 0.00026153,0.00054576,0.00019577,-0.00032870,0.11691567,0.13429028,0.0
 0704086,0.00548194,0.00242228,-0.07721224,-0.05578974,-0.09001251,0.00
 975631,0.00588766,0.00387278,0.00111640,0.00175371,-0.00026108,0.00207
 245,0.00073013,0.00024030,-0.00004975,0.00056881,0.00102064,-0.0001684
 0,-0.00011782,0.00001205,-0.02520032,-0.01833752,-0.01247751,0.0810397
 1,0.05950084,0.09357519,0.00027538,0.00012280,-0.00035882,-0.00031443,
 -0.00100134,0.00363569,-0.05452737,0.00406432,-0.02774616,-0.00390468,
 -0.00200134,-0.03143513,0.00060529,-0.00049438,0.00033171,0.00021149,0
 .00041879,-0.00000795,-0.00000726,-0.00003372,0.00014092,0.00095050,-0
 .00112567,0.00019382,0.00017204,0.00037432,0.00034835,0.05701512,-0.00
 078864,0.00109972,0.00032916,0.00280254,-0.00082783,0.03404244,0.00407
 662,-0.04905044,-0.00214053,-0.00255898,-0.00195110,-0.01346245,0.0000
 6832,-0.00007450,-0.00011638,0.00042787,-0.00030348,-0.00047381,-0.000
 30590,0.00007038,-0.00034769,0.00090189,-0.00616068,0.00252577,-0.0003
 6424,0.00185397,-0.00056585,0.00122457,0.05422253,0.00008391,-0.000611
 49,0.00026464,-0.00018007,0.00046818,-0.01200006,-0.02754079,-0.002020
 98,-0.29942286,-0.00061768,-0.00098498,-0.00657898,-0.00011246,0.00003
 964,0.00000567,-0.00049868,0.00049984,0.00044418,-0.00002770,0.0001893
 8,0.00033754,-0.00009492,0.00255492,0.00086895,0.00040094,0.00020069,0
 .00095976,0.03182731,0.00009243,0.32549123,-0.00091936,-0.00149065,-0.
 00006184,0.00328904,-0.00295756,-0.00222404,-0.18261657,0.10730147,0.0
 7527213,-0.01757379,0.01738436,0.01106923,-0.00367380,-0.00156636,-0.0
 0157720,-0.00003510,0.00009474,0.00017588,0.00036999,0.00016928,0.0000
 7567,0.00015664,0.00041690,-0.00037377,-0.00001991,0.00043002,-0.00024
 087,0.00342234,-0.00277996,-0.00103084,0.19786007,-0.00041696,-0.00532
 885,0.00329158,0.02222092,-0.01381836,-0.01342004,0.10734318,-0.133722
 32,-0.05982433,-0.00966743,0.00829015,0.00530579,-0.00244781,-0.001792
 35,-0.00050351,-0.00018704,0.00006551,-0.00014391,0.00183701,-0.000549
 98,-0.00049551,-0.00030289,0.00185107,0.00022458,-0.00044587,-0.000262
 19,-0.00025120,-0.00067091,0.00031798,-0.00028130,-0.11807346,0.143627
 18,-0.00103084,0.00182836,-0.00023309,-0.00949244,0.00633360,0.0041398
 5,0.07711841,-0.06131590,-0.09352730,-0.00636168,0.00536037,0.00232932
 ,-0.00195272,0.00084719,0.00032377,-0.00030352,0.00036074,0.00027701,-
 0.00047044,0.00035801,0.00032840,-0.00035217,-0.00056084,0.00097640,0.
 00023177,-0.00027106,0.00003682,0.02408631,-0.01925800,-0.01302611,-0.
 08107035,0.06542681,0.09731212,-0.00134349,0.00009934,0.00048782,0.000
 63132,0.00085859,-0.00042371,-0.00243945,-0.00919040,-0.03289224,-0.04
 620083,-0.00338520,0.00081738,-0.00292715,0.00811487,0.01887516,0.0001
 2804,0.00014170,0.00001530,0.00020188,0.00015332,0.00004026,0.00019106
 ,-0.00045529,0.00052458,-0.00002793,0.00018757,0.00032471,-0.00561317,
 -0.00339261,-0.00155818,0.00171188,0.00082995,0.00005836,0.05574074,0.
 00115786,-0.00089736,0.00035379,0.00037222,0.00041908,-0.00066872,0.00
 048808,-0.00257085,-0.00893151,-0.00329779,-0.07744890,-0.07686670,0.0
 0232237,-0.00843605,-0.02359997,-0.00014576,0.00000030,0.00004433,-0.0
 0021561,-0.00044213,-0.00012635,-0.00042689,-0.00026235,0.00049130,-0.
 00008271,0.00006154,0.00035027,-0.00126768,0.00012081,-0.00009642,0.00
 019118,0.00071404,0.00056226,-0.00113623,0.08117038,0.00006811,0.00003
 417,0.00005654,0.00049874,0.00014438,-0.00000415,-0.00103417,-0.001436
 52,-0.00808332,0.00054780,-0.07680047,-0.28139769,-0.00008726,0.000987
 53,-0.00073144,-0.00001667,0.00004162,-0.00000455,-0.00002269,-0.00016
 975,-0.00002605,-0.00000481,-0.00046548,0.00043262,-0.00017443,-0.0001
 4121,0.00027383,-0.00179879,-0.00061810,0.00127025,-0.00039269,0.00036
 113,0.00102928,0.00248888,0.08459533,0.30302711,-0.00232787,0.00206362
 ,-0.00040553,-0.00597649,-0.00106910,-0.00229868,-0.00680797,-0.022854
 79,0.01860176,-0.07195213,-0.06068415,0.04705465,0.00577629,0.01516530
 ,-0.01126218,0.00020261,0.00018708,0.00001071,0.00066389,0.00047865,0.
 00007670,0.00000368,0.00030045,0.00004308,0.00029794,-0.00188151,0.000
 48415,0.00200258,0.00074861,-0.00019692,-0.00064884,0.00014174,0.00017
 894,0.00036882,0.00067002,-0.00010474,0.07807628,0.00123835,-0.0023265
 5,0.00053281,-0.00076112,-0.00110221,-0.00110615,-0.00138225,-0.005173
 23,0.00402919,-0.06049866,-0.19648767,0.11559917,-0.00769881,-0.015532
 76,0.01296450,-0.00018269,-0.00044369,-0.00016646,-0.00054258,-0.00082
 565,-0.00020184,0.00004073,0.00005699,0.00018705,-0.00019470,-0.000468
 99,0.00034330,0.00022343,0.00043351,-0.00033297,-0.00050033,-0.0002162
 6,-0.00011267,0.00378065,0.00934496,-0.00595323,0.06593183,0.21295833,
 -0.00024669,-0.00154933,-0.00002220,-0.00123243,-0.00112841,0.00002765
 ,-0.00329311,-0.00840160,0.00520791,0.04803198,0.11759501,-0.14167317,
 -0.00167274,-0.00473326,0.00217751,-0.00005054,-0.00012924,-0.00002537
 ,-0.00010070,-0.00021011,-0.00002271,-0.00014700,-0.00034906,0.0003401
 4,-0.00009470,-0.00044928,0.00031936,0.00049331,-0.00013909,0.00127585
 ,0.00012918,0.00025409,0.00000546,0.01038650,0.02445396,-0.01904026,-0
 .05181377,-0.12517801,0.14965758,-0.00917001,0.00177675,-0.01539708,-0
 .00050484,-0.00008550,-0.00051382,-0.00179234,0.00198531,0.00105165,-0
 .01021933,0.00197099,-0.01323285,-0.14190690,0.01202273,-0.12385104,-0
 .00174639,-0.00171298,0.00019859,0.00149942,0.00029589,0.00036622,-0.0
 0038268,0.00004342,0.00036457,-0.00044374,-0.00001226,0.00038498,0.000
 09514,-0.00004250,-0.00010501,-0.00088984,-0.00020240,-0.00027575,0.00
 109946,-0.00026489,0.00019156,-0.00112965,0.00085081,-0.00001498,0.152
 11389,-0.01470204,-0.00018388,-0.02262827,-0.00062504,-0.00109590,-0.0
 0045585,0.00099158,-0.00413429,-0.00052033,0.01701134,-0.00288947,0.02
 039675,0.01244368,-0.04719271,0.01932634,-0.00384897,-0.00316984,-0.00
 055451,0.00063150,0.00147645,-0.00021833,-0.00016108,0.00024015,0.0001
 3907,-0.00037790,0.00029717,0.00027415,-0.00002087,0.00001464,0.000134
 19,0.00096729,0.00054401,0.00016122,-0.00037619,0.00161414,0.00005583,
 0.00143701,-0.00172851,0.00015421,-0.01476122,0.05608147,0.00094205,-0
 .00056526,-0.00039831,0.00019289,-0.00001540,-0.00028291,0.00081185,-0
 .00045031,0.00039533,0.00476532,-0.00157622,0.00355492,-0.12486673,0.0
 1911115,-0.21915574,-0.00047205,-0.00048102,0.00112426,0.00009433,-0.0
 0046402,0.00139471,0.00000077,0.00008636,0.00001095,-0.00011331,0.0000
 3914,-0.00000161,0.00027767,0.00004541,0.00009077,0.00012456,0.0000220
 2,0.00002379,0.00033987,-0.00002241,0.00208092,-0.00025505,-0.00015166
 ,0.00036633,0.13486828,-0.01822087,0.23367881,-0.01074226,-0.00168971,
 0.01436317,-0.00195811,-0.00208236,-0.00101778,-0.00046866,0.00006198,
 0.00050050,-0.00832859,-0.00146054,0.01466345,-0.13699848,-0.00795013,
 0.12261901,0.00111191,0.00028248,-0.00016800,-0.00121459,-0.00087475,0
 .00005742,0.00009379,0.00004046,0.00011017,-0.00091385,0.00026087,0.00
 030366,-0.00038296,-0.00001759,-0.00034891,-0.00043275,0.00004197,-0.0
 0036387,-0.00152119,0.00163582,-0.00015886,0.00145085,-0.00030466,-0.0
 0037430,0.01337782,0.00139091,-0.01671044,0.14692708,-0.01622873,-0.00
 215801,0.02023380,-0.00108969,-0.00401326,-0.00045502,0.00058913,-0.00
 112261,-0.00048992,0.01450073,-0.00069959,-0.02356104,-0.00836645,-0.0
 4637310,0.01467103,0.00039682,0.00158843,0.00005482,-0.00145398,-0.001
 63738,0.00018641,0.00002068,0.00001217,0.00012946,-0.00090555,0.000571
 97,0.00017132,0.00018767,0.00023451,0.00014885,0.00041309,0.00028040,0
 .00027990,0.00376992,-0.00338761,-0.00063524,-0.00063476,0.00151174,-0
 .00018989,-0.00186414,0.00012658,0.00264309,0.01066525,0.05506575,-0.0
 0450240,-0.00134989,0.00334314,-0.00077507,-0.00037217,0.00043727,-0.0
 0018893,-0.00000921,-0.00029053,-0.00077357,-0.00049425,-0.00072680,0.
 12362335,0.01440897,-0.22486629,-0.00031854,-0.00001494,0.00209248,0.0
 0028494,-0.00014221,0.00035929,-0.00027575,0.00005538,0.00009475,-0.00
 010234,0.00002116,0.00001971,0.00001175,0.00008669,0.00001918,0.000124
 93,0.00003379,0.00000428,0.00051531,-0.00053915,0.00111692,-0.00011313
 ,-0.00045302,0.00140592,0.01596469,0.00195640,-0.02288221,-0.13347523,
 -0.01318757,0.23987290||0.00000924,0.00002779,0.00004401,-0.00001021,-
 0.00002435,-0.00001028,0.00001586,0.00002714,0.00000995,0.00000513,-0.
 00003309,-0.00003773,-0.00005347,-0.00000061,-0.00000637,-0.00000132,-
 0.00001857,0.00000068,0.00000009,-0.00001642,0.00000176,0.00000070,0.0
 0001005,0.00000944,-0.00000460,-0.00000488,0.00001402,-0.00000438,-0.0
 0000801,-0.00001030,-0.00000358,0.00000368,-0.00001333,-0.00000067,0.0
 0001759,-0.00000032,0.00000218,0.00001691,-0.00000195,0.00002223,0.000
 01118,0.00000030,0.00002279,-0.00000840,0.00000012|||@


 A ROPE OVER THE TOP OF A FENCE HAS THE SAME LENGTH ON EACH SIDE.
 WEIGHS 1/3 POUND PER FOOT.  ON ONE END HANGS A MONKEY HOLDING A
 BANANA, AND ON THE OTHER END A WEIGHT EQUAL TO THE WEIGHT
 OF THE MONKEY.  THE BANANA WEIGHS TWO OUNCES PER INCH.
 THE ROPE IS AS LONG AS THE AGE OF THE MONKEY, 
 AND THE WEIGHT OF THE MONKEY (IN OUNCES) IS AS MUCH
 AS THE AGE OF THE MONKEY'S MOTHER.  THE COMBINED AGES OF MONKEY
 AND MOTHER ARE THIRTY YEARS.  HALF THE WEIGHT OF THE MONKEY,
  PLUS THE WEIGHT OF THE BANANA, IS ONE FOURTH AS MUCH AS THE WEIGHT
 OF THE WEIGHT AND THE ROPE.
 THE MONKEY'S MOTHER IS HALF AS OLD AS THE MONKEY WILL BE
 WHEN IT IS 3 TIMES AS OLD AS ITS MOTHER WAS WHEN
 SHE WAS HALF AS OLD AS THE MONKEY WILL BE WHEN IT IS
 AS OLD AS ITS MOTHER WILL BE WHEN SHE IS 4 TIMES AS
 OLD AS THE MONKEY WAS WHEN IT WAS TWICE AS OLD AS 
 ITS MOTHER WAS WHEN SHE WAS ONE THIRD AS OLD AS THE
 MONKEY WAS WHEN IT WAS AS OLD AS ITS MOTHER WAS WHEN 
 SHE WAS 3 TIMES AS OLD AS THE MONKEY WAS WHEN IT WAS AS OLD AS ITS
 MOTHER WAS WHEN SHE WAS 3 TIMES AS OLD AS THE MONKEY 
 WAS WHEN IT WAS ONE FOURTH WAS OLD AS IT IS NOW.

 HOW LONG IS THE BANANA?
 Job cpu time:       0 days  0 hours  1 minutes 11.0 seconds.
 File lengths (MBytes):  RWF=     19 Int=      0 D2E=      0 Chk=      2 Scr=      1
 Normal termination of Gaussian 09 at Fri Mar 20 17:22:12 2026.
