 Entering Gaussian System, Link 0=C:\G09W\g09.exe
 Input=cyclopentane_ml.com
 Output=C:\workspace\delta_chem\data\raw\benchmark_new\cyclopentane\cyclopentane_ml.out
 Initial command:
 C:\G09W\l1.exe ".\Gau-9672.inp" "C:\workspace\delta_chem\data\raw\benchmark_new\cyclopentane\cyclopentane_ml.out" /scrdir=".\"
 Entering Link 1 = C:\G09W\l1.exe PID=      5196.
  
 Copyright (c) 1988,1990,1992,1993,1995,1998,2003,2009,2013,
            Gaussian, Inc.  All Rights Reserved.
  
 This is part of the Gaussian(R) 09 program.  It is based on
 the Gaussian(R) 03 system (copyright 2003, Gaussian, Inc.),
 the Gaussian(R) 98 system (copyright 1998, Gaussian, Inc.),
 the Gaussian(R) 94 system (copyright 1995, Gaussian, Inc.),
 the Gaussian 92(TM) system (copyright 1992, Gaussian, Inc.),
 the Gaussian 90(TM) system (copyright 1990, Gaussian, Inc.),
 the Gaussian 88(TM) system (copyright 1988, Gaussian, Inc.),
 the Gaussian 86(TM) system (copyright 1986, Carnegie Mellon
 University), and the Gaussian 82(TM) system (copyright 1983,
 Carnegie Mellon University). Gaussian is a federally registered
 trademark of Gaussian, Inc.
  
 This software contains proprietary and confidential information,
 including trade secrets, belonging to Gaussian, Inc.
  
 This software is provided under written license and may be
 used, copied, transmitted, or stored only in accord with that
 written license.
  
 The following legend is applicable only to US Government
 contracts under FAR:
  
                    RESTRICTED RIGHTS LEGEND
  
 Use, reproduction and disclosure by the US Government is
 subject to restrictions as set forth in subparagraphs (a)
 and (c) of the Commercial Computer Software - Restricted
 Rights clause in FAR 52.227-19.
  
 Gaussian, Inc.
 340 Quinnipiac St., Bldg. 40, Wallingford CT 06492
  
  
 ---------------------------------------------------------------
 Warning -- This program may not be used in any manner that
 competes with the business of Gaussian, Inc. or will provide
 assistance to any competitor of Gaussian, Inc.  The licensee
 of this program is prohibited from giving any competitor of
 Gaussian, Inc. access to this program.  By using this program,
 the user acknowledges that Gaussian, Inc. is engaged in the
 business of creating and licensing software in the field of
 computational chemistry and represents and warrants to the
 licensee that it is not a competitor of Gaussian, Inc. and that
 it will not use this program in any manner prohibited above.
 ---------------------------------------------------------------
  

 Cite this work as:
 Gaussian 09, Revision D.01,
 M. J. Frisch, G. W. Trucks, H. B. Schlegel, G. E. Scuseria, 
 M. A. Robb, J. R. Cheeseman, G. Scalmani, V. Barone, B. Mennucci, 
 G. A. Petersson, H. Nakatsuji, M. Caricato, X. Li, H. P. Hratchian, 
 A. F. Izmaylov, J. Bloino, G. Zheng, J. L. Sonnenberg, M. Hada, 
 M. Ehara, K. Toyota, R. Fukuda, J. Hasegawa, M. Ishida, T. Nakajima, 
 Y. Honda, O. Kitao, H. Nakai, T. Vreven, J. A. Montgomery, Jr., 
 J. E. Peralta, F. Ogliaro, M. Bearpark, J. J. Heyd, E. Brothers, 
 K. N. Kudin, V. N. Staroverov, T. Keith, R. Kobayashi, J. Normand, 
 K. Raghavachari, A. Rendell, J. C. Burant, S. S. Iyengar, J. Tomasi, 
 M. Cossi, N. Rega, J. M. Millam, M. Klene, J. E. Knox, J. B. Cross, 
 V. Bakken, C. Adamo, J. Jaramillo, R. Gomperts, R. E. Stratmann, 
 O. Yazyev, A. J. Austin, R. Cammi, C. Pomelli, J. W. Ochterski, 
 R. L. Martin, K. Morokuma, V. G. Zakrzewski, G. A. Voth, 
 P. Salvador, J. J. Dannenberg, S. Dapprich, A. D. Daniels, 
 O. Farkas, J. B. Foresman, J. V. Ortiz, J. Cioslowski, 
 and D. J. Fox, Gaussian, Inc., Wallingford CT, 2013.
 
 ******************************************
 Gaussian 09:  EM64W-G09RevD.01 13-Apr-2013
                20-Mar-2026 
 ******************************************
 %NProcShared=4
 Will use up to    4 processors via shared memory.
 %Mem=4GB
 %Chk=cyclopentane_ml.chk
 --------------------------
 #p opt freq B3LYP/6-31G(d)
 --------------------------
 1/14=-1,18=20,19=15,26=3,38=1/1,3;
 2/9=110,12=2,17=6,18=5,40=1/2;
 3/5=1,6=6,7=1,11=2,16=1,25=1,30=1,71=1,74=-5/1,2,3;
 4//1;
 5/5=2,38=5/2;
 6/7=2,8=2,9=2,10=2,28=1/1;
 7//1,2,3,16;
 1/14=-1,18=20,19=15,26=3/3(2);
 2/9=110/2;
 99//99;
 2/9=110/2;
 3/5=1,6=6,7=1,11=2,16=1,25=1,30=1,71=1,74=-5/1,2,3;
 4/5=5,16=3,69=1/1;
 5/5=2,38=5/2;
 7//1,2,3,16;
 1/14=-1,18=20,19=15,26=3/3(-5);
 2/9=110/2;
 6/7=2,8=2,9=2,10=2,19=2,28=1/1;
 99/9=1/99;
 Leave Link    1 at Fri Mar 20 17:22:12 2026, MaxMem=   536870912 cpu:         0.0
 (Enter C:\G09W\l101.exe)
 ---------------
 cyclopentane ml
 ---------------
 Symbolic Z-matrix:
 Charge =  0 Multiplicity = 1
 C                    -0.33899   1.22445   0.11879 
 C                     1.04834   0.6884   -0.2726 
 C                     1.02621  -0.7296    0.24869 
 C                    -0.39124  -1.20819  -0.11023 
 C                    -1.27871   0.02714   0.01492 
 H                    -0.32036   1.59053   1.15884 
 H                    -0.65589   2.057    -0.52054 
 H                     1.14891   0.70479  -1.36018 
 H                     1.84457   1.28277   0.16836 
 H                     1.15105  -0.75045   1.33367 
 H                     1.78785  -1.35488  -0.21022 
 H                    -0.40982  -1.57599  -1.15046 
 H                    -0.72483  -2.02962   0.5364 
 H                    -1.93886   0.1126   -0.85899 
 H                    -1.92144  -0.03599   0.90356 
 
 NAtoms=     15 NQM=       15 NQMF=       0 NMMI=      0 NMMIF=      0
                NMic=       0 NMicF=      0.
                    Isotopes and Nuclear Properties:
 (Nuclear quadrupole moments (NQMom) in fm**2, nuclear magnetic moments (NMagM)
  in nuclear magnetons)

  Atom         1           2           3           4           5           6           7           8           9          10
 IAtWgt=          12          12          12          12          12           1           1           1           1           1
 AtmWgt=  12.0000000  12.0000000  12.0000000  12.0000000  12.0000000   1.0078250   1.0078250   1.0078250   1.0078250   1.0078250
 NucSpn=           0           0           0           0           0           1           1           1           1           1
 AtZEff=   0.0000000   0.0000000   0.0000000   0.0000000   0.0000000   0.0000000   0.0000000   0.0000000   0.0000000   0.0000000
 NQMom=    0.0000000   0.0000000   0.0000000   0.0000000   0.0000000   0.0000000   0.0000000   0.0000000   0.0000000   0.0000000
 NMagM=    0.0000000   0.0000000   0.0000000   0.0000000   0.0000000   2.7928460   2.7928460   2.7928460   2.7928460   2.7928460
 AtZNuc=   6.0000000   6.0000000   6.0000000   6.0000000   6.0000000   1.0000000   1.0000000   1.0000000   1.0000000   1.0000000

  Atom        11          12          13          14          15
 IAtWgt=           1           1           1           1           1
 AtmWgt=   1.0078250   1.0078250   1.0078250   1.0078250   1.0078250
 NucSpn=           1           1           1           1           1
 AtZEff=   0.0000000   0.0000000   0.0000000   0.0000000   0.0000000
 NQMom=    0.0000000   0.0000000   0.0000000   0.0000000   0.0000000
 NMagM=    2.7928460   2.7928460   2.7928460   2.7928460   2.7928460
 AtZNuc=   1.0000000   1.0000000   1.0000000   1.0000000   1.0000000
 Leave Link  101 at Fri Mar 20 17:22:12 2026, MaxMem=   536870912 cpu:         0.0
 (Enter C:\G09W\l103.exe)

 GradGradGradGradGradGradGradGradGradGradGradGradGradGradGradGradGradGrad
 Berny optimization.
 Initialization pass.
                           ----------------------------
                           !    Initial Parameters    !
                           ! (Angstroms and Degrees)  !
 --------------------------                            --------------------------
 ! Name  Definition              Value          Derivative Info.                !
 --------------------------------------------------------------------------------
 ! R1    R(1,2)                  1.5379         estimate D2E/DX2                !
 ! R2    R(1,5)                  1.5256         estimate D2E/DX2                !
 ! R3    R(1,6)                  1.1028         estimate D2E/DX2                !
 ! R4    R(1,7)                  1.0965         estimate D2E/DX2                !
 ! R5    R(2,3)                  1.5109         estimate D2E/DX2                !
 ! R6    R(2,8)                  1.0923         estimate D2E/DX2                !
 ! R7    R(2,9)                  1.0871         estimate D2E/DX2                !
 ! R8    R(3,4)                  1.5385         estimate D2E/DX2                !
 ! R9    R(3,10)                 1.0923         estimate D2E/DX2                !
 ! R10   R(3,11)                 1.087          estimate D2E/DX2                !
 ! R11   R(4,5)                  1.5262         estimate D2E/DX2                !
 ! R12   R(4,12)                 1.1035         estimate D2E/DX2                !
 ! R13   R(4,13)                 1.0973         estimate D2E/DX2                !
 ! R14   R(5,14)                 1.0986         estimate D2E/DX2                !
 ! R15   R(5,15)                 1.0985         estimate D2E/DX2                !
 ! A1    A(2,1,5)              105.3535         estimate D2E/DX2                !
 ! A2    A(2,1,6)              109.9066         estimate D2E/DX2                !
 ! A3    A(2,1,7)              112.1468         estimate D2E/DX2                !
 ! A4    A(5,1,6)              109.5819         estimate D2E/DX2                !
 ! A5    A(5,1,7)              112.2207         estimate D2E/DX2                !
 ! A6    A(6,1,7)              107.6222         estimate D2E/DX2                !
 ! A7    A(1,2,3)              103.0677         estimate D2E/DX2                !
 ! A8    A(1,2,8)              109.3415         estimate D2E/DX2                !
 ! A9    A(1,2,9)              111.5263         estimate D2E/DX2                !
 ! A10   A(3,2,8)              111.0347         estimate D2E/DX2                !
 ! A11   A(3,2,9)              112.5764         estimate D2E/DX2                !
 ! A12   A(8,2,9)              109.1614         estimate D2E/DX2                !
 ! A13   A(2,3,4)              102.9997         estimate D2E/DX2                !
 ! A14   A(2,3,10)             111.0339         estimate D2E/DX2                !
 ! A15   A(2,3,11)             112.5766         estimate D2E/DX2                !
 ! A16   A(4,3,10)             109.3336         estimate D2E/DX2                !
 ! A17   A(4,3,11)             111.5989         estimate D2E/DX2                !
 ! A18   A(10,3,11)            109.1632         estimate D2E/DX2                !
 ! A19   A(3,4,5)              105.3559         estimate D2E/DX2                !
 ! A20   A(3,4,12)             109.8225         estimate D2E/DX2                !
 ! A21   A(3,4,13)             112.0532         estimate D2E/DX2                !
 ! A22   A(5,4,12)             109.7116         estimate D2E/DX2                !
 ! A23   A(5,4,13)             112.3838         estimate D2E/DX2                !
 ! A24   A(12,4,13)            107.5095         estimate D2E/DX2                !
 ! A25   A(1,5,4)              106.4183         estimate D2E/DX2                !
 ! A26   A(1,5,14)             111.3007         estimate D2E/DX2                !
 ! A27   A(1,5,15)             110.513          estimate D2E/DX2                !
 ! A28   A(4,5,14)             110.3143         estimate D2E/DX2                !
 ! A29   A(4,5,15)             111.1024         estimate D2E/DX2                !
 ! A30   A(14,5,15)            107.241          estimate D2E/DX2                !
 ! D1    D(5,1,2,3)            -33.65           estimate D2E/DX2                !
 ! D2    D(5,1,2,8)             84.5135         estimate D2E/DX2                !
 ! D3    D(5,1,2,9)           -154.6627         estimate D2E/DX2                !
 ! D4    D(6,1,2,3)             84.3242         estimate D2E/DX2                !
 ! D5    D(6,1,2,8)           -157.5122         estimate D2E/DX2                !
 ! D6    D(6,1,2,9)            -36.6884         estimate D2E/DX2                !
 ! D7    D(7,1,2,3)           -156.0051         estimate D2E/DX2                !
 ! D8    D(7,1,2,8)            -37.8416         estimate D2E/DX2                !
 ! D9    D(7,1,2,9)             82.9822         estimate D2E/DX2                !
 ! D10   D(2,1,5,4)             12.6951         estimate D2E/DX2                !
 ! D11   D(2,1,5,14)          -107.527          estimate D2E/DX2                !
 ! D12   D(2,1,5,15)           133.4253         estimate D2E/DX2                !
 ! D13   D(6,1,5,4)           -105.4976         estimate D2E/DX2                !
 ! D14   D(6,1,5,14)           134.2803         estimate D2E/DX2                !
 ! D15   D(6,1,5,15)            15.2327         estimate D2E/DX2                !
 ! D16   D(7,1,5,4)            135.0025         estimate D2E/DX2                !
 ! D17   D(7,1,5,14)            14.7804         estimate D2E/DX2                !
 ! D18   D(7,1,5,15)          -104.2672         estimate D2E/DX2                !
 ! D19   D(1,2,3,4)             41.1987         estimate D2E/DX2                !
 ! D20   D(1,2,3,10)           -75.7253         estimate D2E/DX2                !
 ! D21   D(1,2,3,11)           161.5388         estimate D2E/DX2                !
 ! D22   D(8,2,3,4)            -75.7722         estimate D2E/DX2                !
 ! D23   D(8,2,3,10)           167.3037         estimate D2E/DX2                !
 ! D24   D(8,2,3,11)            44.5678         estimate D2E/DX2                !
 ! D25   D(9,2,3,4)            161.4937         estimate D2E/DX2                !
 ! D26   D(9,2,3,10)            44.5696         estimate D2E/DX2                !
 ! D27   D(9,2,3,11)           -78.1662         estimate D2E/DX2                !
 ! D28   D(2,3,4,5)            -33.6236         estimate D2E/DX2                !
 ! D29   D(2,3,4,12)            84.4622         estimate D2E/DX2                !
 ! D30   D(2,3,4,13)          -156.1258         estimate D2E/DX2                !
 ! D31   D(10,3,4,5)            84.4999         estimate D2E/DX2                !
 ! D32   D(10,3,4,12)         -157.4143         estimate D2E/DX2                !
 ! D33   D(10,3,4,13)          -38.0022         estimate D2E/DX2                !
 ! D34   D(11,3,4,5)          -154.6326         estimate D2E/DX2                !
 ! D35   D(11,3,4,12)          -36.5468         estimate D2E/DX2                !
 ! D36   D(11,3,4,13)           82.8652         estimate D2E/DX2                !
 ! D37   D(3,4,5,1)             12.6942         estimate D2E/DX2                !
 ! D38   D(3,4,5,14)           133.5516         estimate D2E/DX2                !
 ! D39   D(3,4,5,15)          -107.6564         estimate D2E/DX2                !
 ! D40   D(12,4,5,1)          -105.4662         estimate D2E/DX2                !
 ! D41   D(12,4,5,14)           15.3913         estimate D2E/DX2                !
 ! D42   D(12,4,5,15)          134.1832         estimate D2E/DX2                !
 ! D43   D(13,4,5,1)           134.9835         estimate D2E/DX2                !
 ! D44   D(13,4,5,14)         -104.159          estimate D2E/DX2                !
 ! D45   D(13,4,5,15)           14.6329         estimate D2E/DX2                !
 --------------------------------------------------------------------------------
 Trust Radius=3.00D-01 FncErr=1.00D-07 GrdErr=1.00D-06
 Number of steps in this run=    100 maximum allowed number of steps=    100.
 GradGradGradGradGradGradGradGradGradGradGradGradGradGradGradGradGradGrad

 Leave Link  103 at Fri Mar 20 17:22:13 2026, MaxMem=   536870912 cpu:         0.0
 (Enter C:\G09W\l202.exe)
                          Input orientation:                          
 ---------------------------------------------------------------------
 Center     Atomic      Atomic             Coordinates (Angstroms)
 Number     Number       Type             X           Y           Z
 ---------------------------------------------------------------------
      1          6           0       -0.338990    1.224450    0.118791
      2          6           0        1.048340    0.688397   -0.272597
      3          6           0        1.026212   -0.729601    0.248685
      4          6           0       -0.391239   -1.208192   -0.110226
      5          6           0       -1.278708    0.027139    0.014921
      6          1           0       -0.320359    1.590526    1.158844
      7          1           0       -0.655894    2.057000   -0.520538
      8          1           0        1.148905    0.704790   -1.360177
      9          1           0        1.844573    1.282768    0.168357
     10          1           0        1.151052   -0.750450    1.333670
     11          1           0        1.787853   -1.354877   -0.210217
     12          1           0       -0.409823   -1.575994   -1.150462
     13          1           0       -0.724826   -2.029621    0.536399
     14          1           0       -1.938864    0.112602   -0.858991
     15          1           0       -1.921440   -0.035990    0.903561
 ---------------------------------------------------------------------
                    Distance matrix (angstroms):
                    1          2          3          4          5
     1  C    0.000000
     2  C    1.537928   0.000000
     3  C    2.387250   1.510941   0.000000
     4  C    2.443957   2.386588   1.538517   0.000000
     5  C    1.525586   2.436202   2.437203   1.526206   0.000000
     6  H    1.102755   2.176281   2.832778   3.073823   2.161289
     7  H    1.096499   2.199764   3.344597   3.301496   2.189737
     8  H    2.161302   1.092343   2.158928   2.755707   2.871134
     9  H    2.184904   1.087062   2.173890   3.358771   3.369723
    10  H    2.756154   2.158917   1.092343   2.161718   2.871842
    11  H    3.359261   2.173877   1.087041   2.186311   3.371120
    12  H    3.075469   2.832729   2.176279   1.103501   2.164050
    13  H    3.303369   3.344580   2.199765   1.097338   2.192940
    14  H    2.179876   3.098191   3.275352   2.168015   1.098559
    15  H    2.169959   3.275313   3.098163   2.177920   1.098531
                    6          7          8          9         10
     6  H    0.000000
     7  H    1.774966   0.000000
     8  H    3.047742   2.406401   0.000000
     9  H    2.400565   2.706723   1.776071   0.000000
    10  H    2.770520   3.819020   3.061787   2.443952   0.000000
    11  H    3.872245   4.208219   2.443950   2.665278   1.776073
    12  H    3.920172   3.695403   2.770485   3.872222   3.047748
    13  H    3.695470   4.221651   3.819015   4.208228   2.406416
    14  H    2.979174   2.353985   3.183739   4.091348   3.885898
    15  H    2.296559   2.830242   3.885908   4.057401   3.183654
                   11         12         13         14         15
    11  H    0.000000
    12  H    2.400569   0.000000
    13  H    2.706708   1.774966   0.000000
    14  H    4.057440   2.296580   2.830216   0.000000
    15  H    4.091310   2.979196   2.353988   1.768890   0.000000
 Stoichiometry    C5H10
 Framework group  C1[X(C5H10)]
 Deg. of freedom    39
 Full point group                 C1      NOp   1
 Largest Abelian subgroup         C1      NOp   1
 Largest concise Abelian subgroup C1      NOp   1
                         Standard orientation:                         
 ---------------------------------------------------------------------
 Center     Atomic      Atomic             Coordinates (Angstroms)
 Number     Number       Type             X           Y           Z
 ---------------------------------------------------------------------
      1          6           0       -0.391942   -1.208605   -0.138613
      2          6           0        1.017670   -0.729196    0.246593
      3          6           0        1.039479    0.698841   -0.246538
      4          6           0       -0.356166    1.219319    0.138574
      5          6           0       -1.287813    0.018442   -0.000116
      6          1           0       -0.397878   -1.554259   -1.185779
      7          1           0       -0.730669   -2.042199    0.488040
      8          1           0        1.129827   -0.770808    1.332366
      9          1           0        1.787531   -1.342052   -0.215386
     10          1           0        1.152760    0.736992   -1.332320
     11          1           0        1.827720    1.287878    0.215384
     12          1           0       -0.350120    1.566692    1.185956
     13          1           0       -0.667960    2.064637   -0.487822
     14          1           0       -1.940689   -0.061381    0.879778
     15          1           0       -1.937890    0.121691   -0.879611
 ---------------------------------------------------------------------
 Rotational constants (GHZ):      6.6374788      6.5471347      3.8170748
 Leave Link  202 at Fri Mar 20 17:22:13 2026, MaxMem=   536870912 cpu:         0.0
 (Enter C:\G09W\l301.exe)
 Standard basis: 6-31G(d) (6D, 7F)
 Ernie: Thresh=  0.10000D-02 Tol=  0.10000D-05 Strict=F.
 There are    95 symmetry adapted cartesian basis functions of A   symmetry.
 There are    95 symmetry adapted basis functions of A   symmetry.
    95 basis functions,   180 primitive gaussians,    95 cartesian basis functions
    20 alpha electrons       20 beta electrons
       nuclear repulsion energy       188.7242455254 Hartrees.
 IExCor=  402 DFT=T Ex+Corr=B3LYP ExCW=0 ScaHFX=  0.200000
 ScaDFX=  0.800000  0.720000  1.000000  0.810000 ScalE2=  1.000000  1.000000
 IRadAn=      0 IRanWt=     -1 IRanGd=            0 ICorTp=0 IEmpDi=  4
 NAtoms=   15 NActive=   15 NUniq=   15 SFac= 1.00D+00 NAtFMM=   60 NAOKFM=F Big=F
 Integral buffers will be    131072 words long.
 Raffenetti 2 integral format.
 Two-electron integral symmetry is turned on.
 Leave Link  301 at Fri Mar 20 17:22:13 2026, MaxMem=   536870912 cpu:         0.0
 (Enter C:\G09W\l302.exe)
 NPDir=0 NMtPBC=     1 NCelOv=     1 NCel=       1 NClECP=     1 NCelD=      1
         NCelK=      1 NCelE2=     1 NClLst=     1 CellRange=     0.0.
 One-electron integrals computed using PRISM.
 NBasis=    95 RedAO= T EigKep=  3.27D-03  NBF=    95
 NBsUse=    95 1.00D-06 EigRej= -1.00D+00 NBFU=    95
 Precomputing XC quadrature grid using
 IXCGrd= 4 IRadAn=           0 IRanWt=          -1 IRanGd=           0 AccXCQ= 0.00D+00.
 Generated NRdTot=       0 NPtTot=           0 NUsed=           0 NTot=          32
 NSgBfM=    95    95    95    95    95 MxSgAt=    15 MxSgA2=    15.
 Leave Link  302 at Fri Mar 20 17:22:13 2026, MaxMem=   536870912 cpu:         0.0
 (Enter C:\G09W\l303.exe)
 DipDrv:  MaxL=1.
 Leave Link  303 at Fri Mar 20 17:22:14 2026, MaxMem=   536870912 cpu:         0.0
 (Enter C:\G09W\l401.exe)
 ExpMin= 1.61D-01 ExpMax= 3.05D+03 ExpMxC= 4.57D+02 IAcc=1 IRadAn=         1 AccDes= 0.00D+00
 Harris functional with IExCor=  402 and IRadAn=       1 diagonalized for initial guess.
 HarFok:  IExCor=  402 AccDes= 0.00D+00 IRadAn=         1 IDoV= 1 UseB2=F ITyADJ=14
 ICtDFT=  3500011 ScaDFX=  1.000000  1.000000  1.000000  1.000000
 FoFCou: FMM=F IPFlag=           0 FMFlag=      100000 FMFlg1=           0
         NFxFlg=           0 DoJE=T BraDBF=F KetDBF=T FulRan=T
         wScrn=  0.000000 ICntrl=     500 IOpCl=  0 I1Cent=   200000004 NGrid=           0
         NMat0=    1 NMatS0=      1 NMatT0=    0 NMatD0=    1 NMtDS0=    0 NMtDT0=    0
 Petite list used in FoFCou.
 Harris En= -196.611657159588    
 JPrj=0 DoOrth=F DoCkMO=F.
 Leave Link  401 at Fri Mar 20 17:22:14 2026, MaxMem=   536870912 cpu:         0.0
 (Enter C:\G09W\l502.exe)
 Closed shell SCF:
 Using DIIS extrapolation, IDIIS=  1040.
 Integral symmetry usage will be decided dynamically.
 Keep R1 ints in memory in canonical form, NReq=11361312.
 IVT=       46930 IEndB=       46930 NGot=   536870912 MDV=   526424903
 LenX=   526424903 LenY=   526415437
 Requested convergence on RMS density matrix=1.00D-08 within 128 cycles.
 Requested convergence on MAX density matrix=1.00D-06.
 Requested convergence on             energy=1.00D-06.
 No special actions if energy rises.
 FoFCou: FMM=F IPFlag=           0 FMFlag=           0 FMFlg1=           0
         NFxFlg=           0 DoJE=F BraDBF=F KetDBF=F FulRan=T
         wScrn=  0.000000 ICntrl=     600 IOpCl=  0 I1Cent=           0 NGrid=           0
         NMat0=    1 NMatS0=   4560 NMatT0=    0 NMatD0=    1 NMtDS0=    0 NMtDT0=    0
 Symmetry not used in FoFCou.
 Integral accuracy reduced to 1.0D-05 until final iterations.

 Cycle   1  Pass 0  IDiag  1:
 E= -196.345874405224    
 DIIS: error= 5.01D-02 at cycle   1 NSaved=   1.
 NSaved= 1 IEnMin= 1 EnMin= -196.345874405224     IErMin= 1 ErrMin= 5.01D-02
 ErrMax= 5.01D-02  0.00D+00 EMaxC= 1.00D-01 BMatC= 1.85D-01 BMatP= 1.85D-01
 IDIUse=3 WtCom= 4.99D-01 WtEn= 5.01D-01
 Coeff-Com:  0.100D+01
 Coeff-En:   0.100D+01
 Coeff:      0.100D+01
 Gap=     0.348 Goal=   None    Shift=    0.000
 GapD=    0.348 DampG=1.000 DampE=0.500 DampFc=0.5000 IDamp=-1.
 Damping current iteration by 5.00D-01
 RMSDP=1.15D-02 MaxDP=1.47D-01              OVMax= 1.84D-01

 Cycle   2  Pass 0  IDiag  1:
 E= -196.430316180797     Delta-E=       -0.084441775572 Rises=F Damp=T
 DIIS: error= 9.65D-03 at cycle   2 NSaved=   2.
 NSaved= 2 IEnMin= 2 EnMin= -196.430316180797     IErMin= 2 ErrMin= 9.65D-03
 ErrMax= 9.65D-03  0.00D+00 EMaxC= 1.00D-01 BMatC= 1.21D-02 BMatP= 1.85D-01
 IDIUse=3 WtCom= 9.04D-01 WtEn= 9.65D-02
 Coeff-Com:  0.120D+00 0.880D+00
 Coeff-En:   0.195D+00 0.805D+00
 Coeff:      0.127D+00 0.873D+00
 Gap=     0.404 Goal=   None    Shift=    0.000
 RMSDP=2.04D-03 MaxDP=2.76D-02 DE=-8.44D-02 OVMax= 1.08D-01

 Cycle   3  Pass 0  IDiag  1:
 E= -196.553627158649     Delta-E=       -0.123310977853 Rises=F Damp=F
 DIIS: error= 4.27D-03 at cycle   3 NSaved=   3.
 NSaved= 3 IEnMin= 3 EnMin= -196.553627158649     IErMin= 3 ErrMin= 4.27D-03
 ErrMax= 4.27D-03  0.00D+00 EMaxC= 1.00D-01 BMatC= 1.35D-03 BMatP= 1.21D-02
 IDIUse=3 WtCom= 9.57D-01 WtEn= 4.27D-02
 Coeff-Com:  0.537D-02 0.222D+00 0.773D+00
 Coeff-En:   0.000D+00 0.000D+00 0.100D+01
 Coeff:      0.514D-02 0.213D+00 0.782D+00
 Gap=     0.389 Goal=   None    Shift=    0.000
 RMSDP=4.97D-04 MaxDP=4.22D-03 DE=-1.23D-01 OVMax= 8.69D-03

 Cycle   4  Pass 0  IDiag  1:
 E= -196.554807147829     Delta-E=       -0.001179989180 Rises=F Damp=F
 DIIS: error= 7.80D-04 at cycle   4 NSaved=   4.
 NSaved= 4 IEnMin= 4 EnMin= -196.554807147829     IErMin= 4 ErrMin= 7.80D-04
 ErrMax= 7.80D-04  0.00D+00 EMaxC= 1.00D-01 BMatC= 4.85D-05 BMatP= 1.35D-03
 IDIUse=3 WtCom= 9.92D-01 WtEn= 7.80D-03
 Coeff-Com: -0.248D-02 0.403D-02 0.166D+00 0.833D+00
 Coeff-En:   0.000D+00 0.000D+00 0.000D+00 0.100D+01
 Coeff:     -0.246D-02 0.399D-02 0.164D+00 0.834D+00
 Gap=     0.389 Goal=   None    Shift=    0.000
 RMSDP=8.96D-05 MaxDP=6.64D-04 DE=-1.18D-03 OVMax= 1.60D-03

 Cycle   5  Pass 0  IDiag  1:
 E= -196.554850383713     Delta-E=       -0.000043235883 Rises=F Damp=F
 DIIS: error= 1.05D-04 at cycle   5 NSaved=   5.
 NSaved= 5 IEnMin= 5 EnMin= -196.554850383713     IErMin= 5 ErrMin= 1.05D-04
 ErrMax= 1.05D-04  0.00D+00 EMaxC= 1.00D-01 BMatC= 2.34D-06 BMatP= 4.85D-05
 IDIUse=3 WtCom= 9.99D-01 WtEn= 1.05D-03
 Coeff-Com: -0.116D-02 0.713D-03 0.769D-01 0.412D+00 0.511D+00
 Coeff-En:   0.000D+00 0.000D+00 0.000D+00 0.000D+00 0.100D+01
 Coeff:     -0.116D-02 0.712D-03 0.768D-01 0.412D+00 0.512D+00
 Gap=     0.389 Goal=   None    Shift=    0.000
 RMSDP=1.80D-05 MaxDP=2.81D-04 DE=-4.32D-05 OVMax= 3.87D-04

 Cycle   6  Pass 0  IDiag  1:
 E= -196.554852647315     Delta-E=       -0.000002263602 Rises=F Damp=F
 DIIS: error= 2.02D-05 at cycle   6 NSaved=   6.
 NSaved= 6 IEnMin= 6 EnMin= -196.554852647315     IErMin= 6 ErrMin= 2.02D-05
 ErrMax= 2.02D-05  0.00D+00 EMaxC= 1.00D-01 BMatC= 6.38D-08 BMatP= 2.34D-06
 IDIUse=1 WtCom= 1.00D+00 WtEn= 0.00D+00
 Coeff-Com:  0.466D-04-0.470D-03 0.165D-02 0.184D-01 0.147D+00 0.833D+00
 Coeff:      0.466D-04-0.470D-03 0.165D-02 0.184D-01 0.147D+00 0.833D+00
 Gap=     0.389 Goal=   None    Shift=    0.000
 RMSDP=2.73D-06 MaxDP=3.42D-05 DE=-2.26D-06 OVMax= 4.87D-05

 Initial convergence to 1.0D-05 achieved.  Increase integral accuracy.
 Cycle   7  Pass 1  IDiag  1:
 E= -196.554922292985     Delta-E=       -0.000069645670 Rises=F Damp=F
 DIIS: error= 2.60D-05 at cycle   1 NSaved=   1.
 NSaved= 1 IEnMin= 1 EnMin= -196.554922292985     IErMin= 1 ErrMin= 2.60D-05
 ErrMax= 2.60D-05  0.00D+00 EMaxC= 1.00D-01 BMatC= 5.94D-08 BMatP= 5.94D-08
 IDIUse=1 WtCom= 1.00D+00 WtEn= 0.00D+00
 Coeff-Com:  0.100D+01
 Coeff:      0.100D+01
 Gap=     0.389 Goal=   None    Shift=    0.000
 RMSDP=2.73D-06 MaxDP=3.42D-05 DE=-6.96D-05 OVMax= 8.06D-05

 Cycle   8  Pass 1  IDiag  1:
 E= -196.554922369471     Delta-E=       -0.000000076486 Rises=F Damp=F
 DIIS: error= 1.79D-06 at cycle   2 NSaved=   2.
 NSaved= 2 IEnMin= 2 EnMin= -196.554922369471     IErMin= 2 ErrMin= 1.79D-06
 ErrMax= 1.79D-06  0.00D+00 EMaxC= 1.00D-01 BMatC= 4.92D-10 BMatP= 5.94D-08
 IDIUse=1 WtCom= 1.00D+00 WtEn= 0.00D+00
 Coeff-Com: -0.345D-01 0.103D+01
 Coeff:     -0.345D-01 0.103D+01
 Gap=     0.389 Goal=   None    Shift=    0.000
 RMSDP=6.46D-07 MaxDP=8.39D-06 DE=-7.65D-08 OVMax= 1.11D-05

 Cycle   9  Pass 1  IDiag  1:
 E= -196.554922369900     Delta-E=       -0.000000000429 Rises=F Damp=F
 DIIS: error= 1.13D-06 at cycle   3 NSaved=   3.
 NSaved= 3 IEnMin= 3 EnMin= -196.554922369900     IErMin= 3 ErrMin= 1.13D-06
 ErrMax= 1.13D-06  0.00D+00 EMaxC= 1.00D-01 BMatC= 2.48D-10 BMatP= 4.92D-10
 IDIUse=1 WtCom= 1.00D+00 WtEn= 0.00D+00
 Coeff-Com: -0.205D-01 0.441D+00 0.580D+00
 Coeff:     -0.205D-01 0.441D+00 0.580D+00
 Gap=     0.389 Goal=   None    Shift=    0.000
 RMSDP=1.89D-07 MaxDP=3.44D-06 DE=-4.29D-10 OVMax= 4.34D-06

 Cycle  10  Pass 1  IDiag  1:
 E= -196.554922370124     Delta-E=       -0.000000000224 Rises=F Damp=F
 DIIS: error= 3.67D-07 at cycle   4 NSaved=   4.
 NSaved= 4 IEnMin= 4 EnMin= -196.554922370124     IErMin= 4 ErrMin= 3.67D-07
 ErrMax= 3.67D-07  0.00D+00 EMaxC= 1.00D-01 BMatC= 1.81D-11 BMatP= 2.48D-10
 IDIUse=1 WtCom= 1.00D+00 WtEn= 0.00D+00
 Coeff-Com: -0.617D-02 0.107D+00 0.245D+00 0.654D+00
 Coeff:     -0.617D-02 0.107D+00 0.245D+00 0.654D+00
 Gap=     0.389 Goal=   None    Shift=    0.000
 RMSDP=4.76D-08 MaxDP=1.03D-06 DE=-2.24D-10 OVMax= 9.96D-07

 Cycle  11  Pass 1  IDiag  1:
 E= -196.554922370138     Delta-E=       -0.000000000014 Rises=F Damp=F
 DIIS: error= 7.41D-08 at cycle   5 NSaved=   5.
 NSaved= 5 IEnMin= 5 EnMin= -196.554922370138     IErMin= 5 ErrMin= 7.41D-08
 ErrMax= 7.41D-08  0.00D+00 EMaxC= 1.00D-01 BMatC= 4.93D-13 BMatP= 1.81D-11
 IDIUse=1 WtCom= 1.00D+00 WtEn= 0.00D+00
 Coeff-Com: -0.225D-03-0.191D-02 0.160D-01 0.165D+00 0.821D+00
 Coeff:     -0.225D-03-0.191D-02 0.160D-01 0.165D+00 0.821D+00
 Gap=     0.389 Goal=   None    Shift=    0.000
 RMSDP=1.00D-08 MaxDP=1.79D-07 DE=-1.40D-11 OVMax= 1.57D-07

 Cycle  12  Pass 1  IDiag  1:
 E= -196.554922370142     Delta-E=       -0.000000000004 Rises=F Damp=F
 DIIS: error= 2.17D-08 at cycle   6 NSaved=   6.
 NSaved= 6 IEnMin= 6 EnMin= -196.554922370142     IErMin= 6 ErrMin= 2.17D-08
 ErrMax= 2.17D-08  0.00D+00 EMaxC= 1.00D-01 BMatC= 4.89D-14 BMatP= 4.93D-13
 IDIUse=1 WtCom= 1.00D+00 WtEn= 0.00D+00
 Coeff-Com: -0.336D-04-0.230D-02 0.372D-02 0.665D-01 0.392D+00 0.540D+00
 Coeff:     -0.336D-04-0.230D-02 0.372D-02 0.665D-01 0.392D+00 0.540D+00
 Gap=     0.389 Goal=   None    Shift=    0.000
 RMSDP=2.80D-09 MaxDP=4.41D-08 DE=-4.43D-12 OVMax= 5.53D-08

 SCF Done:  E(RB3LYP) =  -196.554922370     A.U. after   12 cycles
            NFock= 12  Conv=0.28D-08     -V/T= 2.0094
 KE= 1.947297798184D+02 PE=-8.314996247594D+02 EE= 2.514906770454D+02
 Leave Link  502 at Fri Mar 20 17:22:22 2026, MaxMem=   536870912 cpu:         7.0
 (Enter C:\G09W\l601.exe)
 Copying SCF densities to generalized density rwf, IOpCl= 0 IROHF=0.

 **********************************************************************

            Population analysis using the SCF density.

 **********************************************************************

 Orbital symmetries:
       Occupied  (A) (A) (A) (A) (A) (A) (A) (A) (A) (A) (A) (A)
                 (A) (A) (A) (A) (A) (A) (A) (A)
       Virtual   (A) (A) (A) (A) (A) (A) (A) (A) (A) (A) (A) (A)
                 (A) (A) (A) (A) (A) (A) (A) (A) (A) (A) (A) (A)
                 (A) (A) (A) (A) (A) (A) (A) (A) (A) (A) (A) (A)
                 (A) (A) (A) (A) (A) (A) (A) (A) (A) (A) (A) (A)
                 (A) (A) (A) (A) (A) (A) (A) (A) (A) (A) (A) (A)
                 (A) (A) (A) (A) (A) (A) (A) (A) (A) (A) (A) (A)
                 (A) (A) (A)
 The electronic state is 1-A.
 Alpha  occ. eigenvalues --  -10.16996 -10.16985 -10.16901 -10.16877 -10.16839
 Alpha  occ. eigenvalues --   -0.82982  -0.70343  -0.69863  -0.56239  -0.55002
 Alpha  occ. eigenvalues --   -0.47781  -0.47101  -0.41177  -0.40825  -0.33177
 Alpha  occ. eigenvalues --   -0.32905  -0.32577  -0.32369  -0.31966  -0.30582
 Alpha virt. eigenvalues --    0.08303   0.09693   0.14752   0.14837   0.17286
 Alpha virt. eigenvalues --    0.17927   0.18167   0.19072   0.19542   0.20190
 Alpha virt. eigenvalues --    0.22112   0.25762   0.26154   0.30764   0.32523
 Alpha virt. eigenvalues --    0.52038   0.54345   0.54988   0.57696   0.58258
 Alpha virt. eigenvalues --    0.59229   0.66895   0.67240   0.68381   0.69076
 Alpha virt. eigenvalues --    0.73690   0.75738   0.81016   0.82177   0.85606
 Alpha virt. eigenvalues --    0.86768   0.87195   0.89470   0.89477   0.93494
 Alpha virt. eigenvalues --    0.93636   0.95688   0.96276   0.97269   1.03278
 Alpha virt. eigenvalues --    1.18884   1.32609   1.33224   1.34583   1.59421
 Alpha virt. eigenvalues --    1.63745   1.68565   1.80870   1.81434   1.83646
 Alpha virt. eigenvalues --    1.88521   1.93119   1.99566   2.00857   2.02018
 Alpha virt. eigenvalues --    2.07410   2.08694   2.09069   2.19972   2.23699
 Alpha virt. eigenvalues --    2.26273   2.38713   2.38888   2.46253   2.54084
 Alpha virt. eigenvalues --    2.55687   2.62801   2.63787   2.66934   2.85542
 Alpha virt. eigenvalues --    4.16458   4.27814   4.28389   4.55603   4.62342
          Condensed to atoms (all electrons):
               1          2          3          4          5          6
     1  C    5.024717   0.390593  -0.072874  -0.076993   0.383439   0.377863
     2  C    0.390593   5.009511   0.387542  -0.073007  -0.073978  -0.038893
     3  C   -0.072874   0.387542   5.009694   0.390245  -0.073876   0.000222
     4  C   -0.076993  -0.073007   0.390245   5.026015   0.383333   0.001613
     5  C    0.383439  -0.073978  -0.073876   0.383333   5.024013  -0.038293
     6  H    0.377863  -0.038893   0.000222   0.001613  -0.038293   0.607113
     7  H    0.372126  -0.031209   0.005680   0.005441  -0.034329  -0.035800
     8  H   -0.039980   0.379023  -0.040308  -0.001404  -0.000624   0.005526
     9  H   -0.032628   0.371870  -0.032295   0.006203   0.005891  -0.007025
    10  H   -0.001427  -0.040296   0.379046  -0.040006  -0.000601   0.002526
    11  H    0.006186  -0.032268   0.371897  -0.032499   0.005870  -0.000131
    12  H    0.001617   0.000208  -0.038936   0.377753  -0.038197  -0.000096
    13  H    0.005436   0.005681  -0.031285   0.371969  -0.034176  -0.000130
    14  H   -0.036417   0.003138   0.004302  -0.034761   0.377391   0.005052
    15  H   -0.034620   0.004311   0.003131  -0.036562   0.377399  -0.010841
               7          8          9         10         11         12
     1  C    0.372126  -0.039980  -0.032628  -0.001427   0.006186   0.001617
     2  C   -0.031209   0.379023   0.371870  -0.040296  -0.032268   0.000208
     3  C    0.005680  -0.040308  -0.032295   0.379046   0.371897  -0.038936
     4  C    0.005441  -0.001404   0.006203  -0.040006  -0.032499   0.377753
     5  C   -0.034329  -0.000624   0.005891  -0.000601   0.005870  -0.038197
     6  H   -0.035800   0.005526  -0.007025   0.002526  -0.000131  -0.000096
     7  H    0.598028  -0.006997   0.001823  -0.000065  -0.000223  -0.000131
     8  H   -0.006997   0.604927  -0.035106   0.005812  -0.006247   0.002520
     9  H    0.001823  -0.035106   0.594192  -0.006249   0.001008  -0.000131
    10  H   -0.000065   0.005812  -0.006249   0.604974  -0.035132   0.005526
    11  H   -0.000223  -0.006247   0.001008  -0.035132   0.594014  -0.007016
    12  H   -0.000131   0.002520  -0.000131   0.005526  -0.007016   0.607517
    13  H   -0.000145  -0.000065  -0.000223  -0.006997   0.001827  -0.035914
    14  H   -0.009189   0.000699  -0.000146  -0.000074  -0.000209  -0.010833
    15  H    0.003624  -0.000075  -0.000209   0.000695  -0.000146   0.005051
              13         14         15
     1  C    0.005436  -0.036417  -0.034620
     2  C    0.005681   0.003138   0.004311
     3  C   -0.031285   0.004302   0.003131
     4  C    0.371969  -0.034761  -0.036562
     5  C   -0.034176   0.377391   0.377399
     6  H   -0.000130   0.005052  -0.010841
     7  H   -0.000145  -0.009189   0.003624
     8  H   -0.000065   0.000699  -0.000075
     9  H   -0.000223  -0.000146  -0.000209
    10  H   -0.006997  -0.000074   0.000695
    11  H    0.001827  -0.000209  -0.000146
    12  H   -0.035914  -0.010833   0.005051
    13  H    0.598476   0.003626  -0.009178
    14  H    0.003626   0.600429  -0.036281
    15  H   -0.009178  -0.036281   0.600404
 Mulliken charges:
               1
     1  C   -0.267038
     2  C   -0.262224
     3  C   -0.262186
     4  C   -0.267339
     5  C   -0.263261
     6  H    0.131293
     7  H    0.131366
     8  H    0.132299
     9  H    0.133023
    10  H    0.132269
    11  H    0.133068
    12  H    0.131062
    13  H    0.131099
    14  H    0.133273
    15  H    0.133296
 Sum of Mulliken charges =   0.00000
 Mulliken charges with hydrogens summed into heavy atoms:
               1
     1  C   -0.004378
     2  C    0.003098
     3  C    0.003151
     4  C   -0.005179
     5  C    0.003308
 Electronic spatial extent (au):  <R**2>=            407.5578
 Charge=              0.0000 electrons
 Dipole moment (field-independent basis, Debye):
    X=              0.0165    Y=             -0.0014    Z=             -0.0002  Tot=              0.0165
 Quadrupole moment (field-independent basis, Debye-Ang):
   XX=            -33.6406   YY=            -33.6678   ZZ=            -32.1526
   XY=              0.0021   XZ=             -0.0006   YZ=             -0.0656
 Traceless Quadrupole moment (field-independent basis, Debye-Ang):
   XX=             -0.4869   YY=             -0.5141   ZZ=              1.0011
   XY=              0.0021   XZ=             -0.0006   YZ=             -0.0656
 Octapole moment (field-independent basis, Debye-Ang**2):
  XXX=              0.5935  YYY=             -0.0116  ZZZ=             -0.0030  XYY=              0.1689
  XXY=             -0.0005  XXZ=              0.0293  XZZ=             -0.4442  YZZ=              0.0006
  YYZ=             -0.0259  XYZ=              0.9206
 Hexadecapole moment (field-independent basis, Debye-Ang**3):
 XXXX=           -245.1008 YYYY=           -242.3459 ZZZZ=            -74.4950 XXXY=              0.0502
 XXXZ=              0.0297 YYYX=             -0.0255 YYYZ=             -1.8100 ZZZX=              0.0073
 ZZZY=              0.2796 XXYY=            -80.2063 XXZZ=            -51.7286 YYZZ=            -51.5566
 XXYZ=              0.6528 YYXZ=             -0.0474 ZZXY=             -0.0008
 N-N= 1.887242455254D+02 E-N=-8.314996215266D+02  KE= 1.947297798184D+02
 No NMR shielding tensors so no spin-rotation constants.
 Leave Link  601 at Fri Mar 20 17:22:22 2026, MaxMem=   536870912 cpu:         0.0
 (Enter C:\G09W\l701.exe)
 Compute integral first derivatives.
 ... and contract with generalized density number  0.
 Leave Link  701 at Fri Mar 20 17:22:23 2026, MaxMem=   536870912 cpu:         1.0
 (Enter C:\G09W\l702.exe)
 L702 exits ... SP integral derivatives will be done elsewhere.
 Leave Link  702 at Fri Mar 20 17:22:23 2026, MaxMem=   536870912 cpu:         0.0
 (Enter C:\G09W\l703.exe)
 Compute integral first derivatives, UseDBF=F ICtDFT=           0.
 Integral derivatives from FoFJK, PRISM(SPDF).
 Calling FoFJK, ICntrl=      2127 FMM=F ISym2X=0 I1Cent= 0 IOpClX= 0 NMat=1 NMatS=1 NMatT=0.
 FoFJK:  IHMeth= 1 ICntrl=    2127 DoSepK=F KAlg= 0 I1Cent=   0 FoldK=F
 IRaf=         0 NMat=   1 IRICut=       1 DoRegI=T DoRafI=F ISym2E= 0.
 FoFCou: FMM=F IPFlag=           0 FMFlag=      100000 FMFlg1=         800
         NFxFlg=           0 DoJE=F BraDBF=F KetDBF=F FulRan=T
         wScrn=  0.000000 ICntrl=    2127 IOpCl=  0 I1Cent=           0 NGrid=           0
         NMat0=    1 NMatS0=      1 NMatT0=    0 NMatD0=    1 NMtDS0=    0 NMtDT0=    0
 Symmetry not used in FoFCou.
 Leave Link  703 at Fri Mar 20 17:22:25 2026, MaxMem=   536870912 cpu:         2.0
 (Enter C:\G09W\l716.exe)
 Dipole        = 6.47795215D-03-5.45053937D-04-6.29749278D-05
 ***** Axes restored to original set *****
 -------------------------------------------------------------------
 Center     Atomic                   Forces (Hartrees/Bohr)
 Number     Number              X              Y              Z
 -------------------------------------------------------------------
      1        6           0.003726927    0.013877711    0.002371791
      2        6          -0.003408939    0.010605038    0.004711673
      3        6          -0.004470756   -0.010259875   -0.004605903
      4        6           0.003698180   -0.014688405   -0.002544146
      5        6          -0.018437882   -0.000436868    0.000145159
      6        1           0.001215463    0.000792004   -0.003900542
      7        1           0.000509570    0.001314061    0.002389506
      8        1           0.002972537   -0.000855756   -0.003237255
      9        1           0.006012635    0.004062599   -0.001584472
     10        1           0.003101586    0.000727916    0.003174228
     11        1           0.005795804   -0.004330657    0.001397650
     12        1           0.001104693   -0.000476699    0.004203986
     13        1           0.000301446   -0.000764591   -0.002594617
     14        1          -0.001025612    0.000178135    0.002828888
     15        1          -0.001095651    0.000255387   -0.002755946
 -------------------------------------------------------------------
 Cartesian Forces:  Max     0.018437882 RMS     0.005375164
 Leave Link  716 at Fri Mar 20 17:22:25 2026, MaxMem=   536870912 cpu:         0.0
 (Enter C:\G09W\l103.exe)

 GradGradGradGradGradGradGradGradGradGradGradGradGradGradGradGradGradGrad
 Berny optimization.
 FormGI is forming the generalized inverse of G from B-inverse, IUseBI=4.
 Internal  Forces:  Max     0.017350337 RMS     0.003480845
 Search for a local minimum.
 Step number   1 out of a maximum of  100
 All quantities printed in internal units (Hartrees-Bohrs-Radians)
 RMS Force = .34808D-02 SwitMx=.10000D-02 MixMth= 1
 Mixed Optimization -- RFO/linear search
 Second derivative matrix not updated -- first step.
 ITU=  0
     Eigenvalues ---    0.00402   0.00590   0.02089   0.02172   0.04173
     Eigenvalues ---    0.04366   0.04553   0.04888   0.05165   0.05238
     Eigenvalues ---    0.05609   0.05700   0.06206   0.06795   0.06809
     Eigenvalues ---    0.07142   0.07153   0.07363   0.08736   0.08790
     Eigenvalues ---    0.11046   0.11338   0.20278   0.20634   0.26906
     Eigenvalues ---    0.27570   0.28493   0.29547   0.30296   0.33298
     Eigenvalues ---    0.33379   0.33842   0.33845   0.33978   0.34072
     Eigenvalues ---    0.34543   0.34543   0.35154   0.35157
 RFO step:  Lambda=-4.51287055D-03 EMin= 4.01514466D-03
 Linear search not attempted -- first point.
 Iteration  1 RMS(Cart)=  0.02217282 RMS(Int)=  0.00018260
 Iteration  2 RMS(Cart)=  0.00014490 RMS(Int)=  0.00010961
 Iteration  3 RMS(Cart)=  0.00000002 RMS(Int)=  0.00010961
 ITry= 1 IFail=0 DXMaxC= 6.37D-02 DCOld= 1.00D+10 DXMaxT= 3.00D-01 DXLimC= 3.00D+00 Rises=F
 Variable       Old X    -DE/DX   Delta X   Delta X   Delta X     New X
                                 (Linear)    (Quad)   (Total)
    R1        2.90626   0.00552   0.00000   0.01795   0.01792   2.92418
    R2        2.88294   0.01735   0.00000   0.05830   0.05829   2.94123
    R3        2.08391  -0.00339   0.00000  -0.01001  -0.01001   2.07389
    R4        2.07208  -0.00055   0.00000  -0.00159  -0.00159   2.07049
    R5        2.85526   0.01487   0.00000   0.04687   0.04694   2.90220
    R6        2.06423   0.00348   0.00000   0.00994   0.00994   2.07417
    R7        2.05425   0.00599   0.00000   0.01681   0.01681   2.07106
    R8        2.90738   0.00527   0.00000   0.01708   0.01705   2.92442
    R9        2.06423   0.00349   0.00000   0.00997   0.00997   2.07420
   R10        2.05421   0.00596   0.00000   0.01675   0.01675   2.07096
   R11        2.88411   0.01702   0.00000   0.05727   0.05726   2.94137
   R12        2.08531  -0.00381   0.00000  -0.01130  -0.01130   2.07401
   R13        2.07367  -0.00105   0.00000  -0.00306  -0.00306   2.07060
   R14        2.07598  -0.00162   0.00000  -0.00472  -0.00472   2.07125
   R15        2.07592  -0.00160   0.00000  -0.00467  -0.00467   2.07125
    A1        1.83877  -0.00037   0.00000  -0.00043  -0.00044   1.83832
    A2        1.91823  -0.00077   0.00000  -0.01329  -0.01332   1.90491
    A3        1.95733   0.00033   0.00000   0.00654   0.00647   1.96380
    A4        1.91256   0.00112   0.00000   0.01285   0.01291   1.92547
    A5        1.95862   0.00095   0.00000   0.01413   0.01401   1.97263
    A6        1.87836  -0.00122   0.00000  -0.01932  -0.01939   1.85897
    A7        1.79887   0.00142   0.00000   0.00985   0.00974   1.80861
    A8        1.90837   0.00128   0.00000   0.00894   0.00897   1.91734
    A9        1.94650  -0.00011   0.00000   0.01719   0.01683   1.96333
   A10        1.93792  -0.00227   0.00000  -0.02380  -0.02376   1.91416
   A11        1.96483   0.00122   0.00000   0.01814   0.01767   1.98250
   A12        1.90523  -0.00139   0.00000  -0.02794  -0.02787   1.87736
   A13        1.79768   0.00166   0.00000   0.01110   0.01100   1.80868
   A14        1.93791  -0.00231   0.00000  -0.02371  -0.02368   1.91423
   A15        1.96483   0.00114   0.00000   0.01779   0.01732   1.98215
   A16        1.90823   0.00125   0.00000   0.00920   0.00925   1.91748
   A17        1.94777  -0.00025   0.00000   0.01596   0.01560   1.96337
   A18        1.90526  -0.00133   0.00000  -0.02792  -0.02785   1.87741
   A19        1.83881  -0.00034   0.00000  -0.00074  -0.00076   1.83805
   A20        1.91676  -0.00070   0.00000  -0.01191  -0.01193   1.90484
   A21        1.95570   0.00046   0.00000   0.00805   0.00801   1.96370
   A22        1.91483   0.00100   0.00000   0.01097   0.01102   1.92585
   A23        1.96147   0.00073   0.00000   0.01177   0.01166   1.97313
   A24        1.87639  -0.00112   0.00000  -0.01781  -0.01784   1.85855
   A25        1.85735  -0.00143   0.00000  -0.00219  -0.00216   1.85519
   A26        1.94256   0.00027   0.00000   0.00323   0.00323   1.94580
   A27        1.92881   0.00109   0.00000   0.00671   0.00666   1.93548
   A28        1.92535   0.00130   0.00000   0.00925   0.00921   1.93456
   A29        1.93910   0.00046   0.00000   0.00601   0.00601   1.94512
   A30        1.87171  -0.00162   0.00000  -0.02228  -0.02226   1.84945
    D1       -0.58730   0.00144   0.00000   0.01902   0.01899  -0.56831
    D2        1.47504   0.00014   0.00000   0.00077   0.00075   1.47579
    D3       -2.69937  -0.00081   0.00000  -0.01719  -0.01734  -2.71671
    D4        1.47174   0.00217   0.00000   0.02721   0.02721   1.49895
    D5       -2.74911   0.00087   0.00000   0.00897   0.00898  -2.74013
    D6       -0.64033  -0.00008   0.00000  -0.00899  -0.00911  -0.64945
    D7       -2.72280   0.00033   0.00000  -0.00185  -0.00182  -2.72463
    D8       -0.66046  -0.00097   0.00000  -0.02009  -0.02006  -0.68052
    D9        1.44831  -0.00192   0.00000  -0.03805  -0.03815   1.41016
   D10        0.22157  -0.00006   0.00000  -0.00612  -0.00618   0.21539
   D11       -1.87670  -0.00090   0.00000  -0.01783  -0.01788  -1.89458
   D12        2.32871   0.00024   0.00000   0.00360   0.00357   2.33228
   D13       -1.84128   0.00048   0.00000   0.00327   0.00325  -1.83803
   D14        2.34363  -0.00036   0.00000  -0.00844  -0.00844   2.33519
   D15        0.26586   0.00078   0.00000   0.01299   0.01300   0.27886
   D16        2.35624   0.00065   0.00000   0.00987   0.00984   2.36608
   D17        0.25797  -0.00019   0.00000  -0.00185  -0.00185   0.25611
   D18       -1.81981   0.00095   0.00000   0.01958   0.01959  -1.80022
   D19        0.71905   0.00026   0.00000  -0.01508  -0.01538   0.70367
   D20       -1.32166  -0.00105   0.00000  -0.02110  -0.02123  -1.34288
   D21        2.81938   0.00157   0.00000   0.01997   0.01990   2.83929
   D22       -1.32248  -0.00097   0.00000  -0.02004  -0.02018  -1.34266
   D23        2.92000  -0.00228   0.00000  -0.02606  -0.02603   2.89397
   D24        0.77786   0.00034   0.00000   0.01501   0.01510   0.79295
   D25        2.81860   0.00163   0.00000   0.02087   0.02079   2.83939
   D26        0.77789   0.00032   0.00000   0.01485   0.01494   0.79283
   D27       -1.36426   0.00294   0.00000   0.05592   0.05607  -1.30818
   D28       -0.58684   0.00136   0.00000   0.01808   0.01805  -0.56879
   D29        1.47414   0.00200   0.00000   0.02457   0.02458   1.49873
   D30       -2.72491   0.00042   0.00000  -0.00058  -0.00057  -2.72548
   D31        1.47480   0.00013   0.00000   0.00071   0.00069   1.47549
   D32       -2.74740   0.00077   0.00000   0.00720   0.00722  -2.74017
   D33       -0.66326  -0.00081   0.00000  -0.01795  -0.01793  -0.68119
   D34       -2.69885  -0.00087   0.00000  -0.01784  -0.01798  -2.71683
   D35       -0.63786  -0.00023   0.00000  -0.01134  -0.01145  -0.64931
   D36        1.44627  -0.00181   0.00000  -0.03650  -0.03660   1.40967
   D37        0.22156  -0.00009   0.00000  -0.00535  -0.00540   0.21616
   D38        2.33092   0.00010   0.00000   0.00245   0.00243   2.33334
   D39       -1.87896  -0.00078   0.00000  -0.01554  -0.01558  -1.89454
   D40       -1.84073   0.00042   0.00000   0.00354   0.00352  -1.83721
   D41        0.26863   0.00060   0.00000   0.01134   0.01135   0.27998
   D42        2.34194  -0.00028   0.00000  -0.00665  -0.00666   2.33528
   D43        2.35591   0.00068   0.00000   0.01095   0.01094   2.36684
   D44       -1.81792   0.00087   0.00000   0.01875   0.01876  -1.79916
   D45        0.25539  -0.00001   0.00000   0.00076   0.00075   0.25615
         Item               Value     Threshold  Converged?
 Maximum Force            0.017350     0.000450     NO 
 RMS     Force            0.003481     0.000300     NO 
 Maximum Displacement     0.063654     0.001800     NO 
 RMS     Displacement     0.022116     0.001200     NO 
 Predicted change in Energy=-2.333745D-03
 Lowest energy point so far.  Saving SCF results.
 GradGradGradGradGradGradGradGradGradGradGradGradGradGradGradGradGradGrad

 Leave Link  103 at Fri Mar 20 17:22:25 2026, MaxMem=   536870912 cpu:         0.0
 (Enter C:\G09W\l202.exe)
                          Input orientation:                          
 ---------------------------------------------------------------------
 Center     Atomic      Atomic             Coordinates (Angstroms)
 Number     Number       Type             X           Y           Z
 ---------------------------------------------------------------------
      1          6           0       -0.344223    1.247528    0.119499
      2          6           0        1.052605    0.704223   -0.265431
      3          6           0        1.029349   -0.745255    0.241608
      4          6           0       -0.396637   -1.232132   -0.111081
      5          6           0       -1.303685    0.026443    0.015264
      6          1           0       -0.313380    1.621047    1.150976
      7          1           0       -0.653992    2.090684   -0.507873
      8          1           0        1.167854    0.712069   -1.356938
      9          1           0        1.866770    1.303764    0.157433
     10          1           0        1.169303   -0.758299    1.330189
     11          1           0        1.809002   -1.376432   -0.199713
     12          1           0       -0.404306   -1.605932   -1.142956
     13          1           0       -0.725060   -2.063101    0.523131
     14          1           0       -1.972133    0.113736   -0.848971
     15          1           0       -1.954675   -0.035395    0.894884
 ---------------------------------------------------------------------
                    Distance matrix (angstroms):
                    1          2          3          4          5
     1  C    0.000000
     2  C    1.547411   0.000000
     3  C    2.423385   1.535778   0.000000
     4  C    2.490910   2.423551   1.547538   0.000000
     5  C    1.556433   2.467850   2.467752   1.556506   0.000000
     6  H    1.097457   2.170874   2.868668   3.120954   2.193925
     7  H    1.095658   2.212132   3.381998   3.356306   2.226403
     8  H    2.180129   1.097602   2.167562   2.789213   2.908871
     9  H    2.212033   1.095959   2.215138   3.409674   3.421045
    10  H    2.789242   2.167624   1.097618   2.180354   2.908697
    11  H    3.409317   2.214854   1.095906   2.212131   3.420979
    12  H    3.120839   2.868703   2.170979   1.097521   2.194312
    13  H    3.356817   3.382308   2.212222   1.095717   2.226866
    14  H    2.207603   3.136596   3.306981   2.199552   1.096059
    15  H    2.200152   3.307129   3.136091   2.207177   1.096058
                    6          7          8          9         10
     6  H    0.000000
     7  H    1.757372   0.000000
     8  H    3.051218   2.437337   0.000000
     9  H    2.416785   2.723254   1.769719   0.000000
    10  H    2.809227   3.849621   3.063109   2.472635   0.000000
    11  H    3.913279   4.264059   2.472261   2.704503   1.769718
    12  H    3.960276   3.759075   2.809021   3.913454   3.051421
    13  H    3.759869   4.280415   3.849591   4.264633   2.437716
    14  H    3.003870   2.400452   3.236595   4.143210   3.921454
    15  H    2.345897   2.860021   3.921682   4.115898   3.235941
                   11         12         13         14         15
    11  H    0.000000
    12  H    2.416839   0.000000
    13  H    2.723140   1.757195   0.000000
    14  H    4.115716   2.345584   2.859454   0.000000
    15  H    4.142679   3.003835   2.400364   1.750308   0.000000
 Stoichiometry    C5H10
 Framework group  C1[X(C5H10)]
 Deg. of freedom    39
 Full point group                 C1      NOp   1
 RotChk:  IX=3 Diff= 1.83D+00
 Largest Abelian subgroup         C1      NOp   1
 Largest concise Abelian subgroup C1      NOp   1
                         Standard orientation:                         
 ---------------------------------------------------------------------
 Center     Atomic      Atomic             Coordinates (Angstroms)
 Number     Number       Type             X           Y           Z
 ---------------------------------------------------------------------
      1          6           0        1.152721   -0.587603   -0.135392
      2          6           0        0.899662    0.891689    0.241618
      3          6           0       -0.535383    1.147847   -0.241748
      4          6           0       -1.284864   -0.152441    0.135618
      5          6           0       -0.230114   -1.289005   -0.000166
      6          1           0        1.506361   -0.639120   -1.173031
      7          1           0        1.930367   -1.050835    0.481981
      8          1           0        0.949594    1.012454    1.331413
      9          1           0        1.638888    1.569362   -0.200459
     10          1           0       -0.540530    1.278395   -1.331563
     11          1           0       -0.994095    2.039540    0.200377
     12          1           0       -1.634247   -0.078141    1.173386
     13          1           0       -2.175294   -0.317512   -0.481215
     14          1           0       -0.259408   -1.954254    0.870426
     15          1           0       -0.433765   -1.922808   -0.870892
 ---------------------------------------------------------------------
 Rotational constants (GHZ):      6.4401893      6.4342384      3.7028252
 Leave Link  202 at Fri Mar 20 17:22:25 2026, MaxMem=   536870912 cpu:         0.0
 (Enter C:\G09W\l301.exe)
 Standard basis: 6-31G(d) (6D, 7F)
 Ernie: Thresh=  0.10000D-02 Tol=  0.10000D-05 Strict=F.
 There are    95 symmetry adapted cartesian basis functions of A   symmetry.
 There are    95 symmetry adapted basis functions of A   symmetry.
    95 basis functions,   180 primitive gaussians,    95 cartesian basis functions
    20 alpha electrons       20 beta electrons
       nuclear repulsion energy       186.6337595280 Hartrees.
 IExCor=  402 DFT=T Ex+Corr=B3LYP ExCW=0 ScaHFX=  0.200000
 ScaDFX=  0.800000  0.720000  1.000000  0.810000 ScalE2=  1.000000  1.000000
 IRadAn=      0 IRanWt=     -1 IRanGd=            0 ICorTp=0 IEmpDi=  4
 NAtoms=   15 NActive=   15 NUniq=   15 SFac= 1.00D+00 NAtFMM=   60 NAOKFM=F Big=F
 Integral buffers will be    131072 words long.
 Raffenetti 2 integral format.
 Two-electron integral symmetry is turned on.
 Leave Link  301 at Fri Mar 20 17:22:26 2026, MaxMem=   536870912 cpu:         0.0
 (Enter C:\G09W\l302.exe)
 NPDir=0 NMtPBC=     1 NCelOv=     1 NCel=       1 NClECP=     1 NCelD=      1
         NCelK=      1 NCelE2=     1 NClLst=     1 CellRange=     0.0.
 One-electron integrals computed using PRISM.
 NBasis=    95 RedAO= T EigKep=  3.64D-03  NBF=    95
 NBsUse=    95 1.00D-06 EigRej= -1.00D+00 NBFU=    95
 Precomputing XC quadrature grid using
 IXCGrd= 4 IRadAn=           0 IRanWt=          -1 IRanGd=           0 AccXCQ= 0.00D+00.
 Generated NRdTot=       0 NPtTot=           0 NUsed=           0 NTot=          32
 NSgBfM=    95    95    95    95    95 MxSgAt=    15 MxSgA2=    15.
 Leave Link  302 at Fri Mar 20 17:22:26 2026, MaxMem=   536870912 cpu:         0.0
 (Enter C:\G09W\l303.exe)
 DipDrv:  MaxL=1.
 Leave Link  303 at Fri Mar 20 17:22:26 2026, MaxMem=   536870912 cpu:         0.0
 (Enter C:\G09W\l401.exe)
 Initial guess from the checkpoint file:  "cyclopentane_ml.chk"
 B after Tr=     0.000000    0.000000    0.000000
         Rot=    0.761929    0.000810    0.000645   -0.647660 Ang=  80.73 deg.
 Guess basis will be translated and rotated to current coordinates.
 JPrj=2 DoOrth=T DoCkMO=T.
 Generating alternative initial guess.
 ExpMin= 1.61D-01 ExpMax= 3.05D+03 ExpMxC= 4.57D+02 IAcc=1 IRadAn=         1 AccDes= 0.00D+00
 Harris functional with IExCor=  402 and IRadAn=       1 diagonalized for initial guess.
 HarFok:  IExCor=  402 AccDes= 0.00D+00 IRadAn=         1 IDoV= 1 UseB2=F ITyADJ=14
 ICtDFT=  3500011 ScaDFX=  1.000000  1.000000  1.000000  1.000000
 FoFCou: FMM=F IPFlag=           0 FMFlag=      100000 FMFlg1=           0
         NFxFlg=           0 DoJE=T BraDBF=F KetDBF=T FulRan=T
         wScrn=  0.000000 ICntrl=     500 IOpCl=  0 I1Cent=   200000004 NGrid=           0
         NMat0=    1 NMatS0=      1 NMatT0=    0 NMatD0=    1 NMtDS0=    0 NMtDT0=    0
 Petite list used in FoFCou.
 Harris En= -196.607470868218    
 Leave Link  401 at Fri Mar 20 17:22:27 2026, MaxMem=   536870912 cpu:         1.0
 (Enter C:\G09W\l502.exe)
 Closed shell SCF:
 Using DIIS extrapolation, IDIIS=  1040.
 Integral symmetry usage will be decided dynamically.
 Keep R1 ints in memory in canonical form, NReq=11361312.
 IVT=       46930 IEndB=       46930 NGot=   536870912 MDV=   526424903
 LenX=   526424903 LenY=   526415437
 Requested convergence on RMS density matrix=1.00D-08 within 128 cycles.
 Requested convergence on MAX density matrix=1.00D-06.
 Requested convergence on             energy=1.00D-06.
 No special actions if energy rises.
 FoFCou: FMM=F IPFlag=           0 FMFlag=           0 FMFlg1=           0
         NFxFlg=           0 DoJE=F BraDBF=F KetDBF=F FulRan=T
         wScrn=  0.000000 ICntrl=     600 IOpCl=  0 I1Cent=           0 NGrid=           0
         NMat0=    1 NMatS0=   4560 NMatT0=    0 NMatD0=    1 NMtDS0=    0 NMtDT0=    0
 Symmetry not used in FoFCou.
 Integral accuracy reduced to 1.0D-05 until final iterations.

 Cycle   1  Pass 0  IDiag  1:
 E= -196.556368006749    
 DIIS: error= 1.67D-03 at cycle   1 NSaved=   1.
 NSaved= 1 IEnMin= 1 EnMin= -196.556368006749     IErMin= 1 ErrMin= 1.67D-03
 ErrMax= 1.67D-03  0.00D+00 EMaxC= 1.00D-01 BMatC= 4.17D-04 BMatP= 4.17D-04
 IDIUse=3 WtCom= 9.83D-01 WtEn= 1.67D-02
 Coeff-Com:  0.100D+01
 Coeff-En:   0.100D+01
 Coeff:      0.100D+01
 Gap=     1.897 Goal=   None    Shift=    0.000
 GapD=    1.897 DampG=2.000 DampE=1.000 DampFc=2.0000 IDamp=-1.
 RMSDP=3.25D-04 MaxDP=4.09D-03              OVMax= 5.84D-03

 Cycle   2  Pass 0  IDiag  1:
 E= -196.556880427132     Delta-E=       -0.000512420383 Rises=F Damp=F
 DIIS: error= 7.52D-04 at cycle   2 NSaved=   2.
 NSaved= 2 IEnMin= 2 EnMin= -196.556880427132     IErMin= 2 ErrMin= 7.52D-04
 ErrMax= 7.52D-04  0.00D+00 EMaxC= 1.00D-01 BMatC= 8.17D-05 BMatP= 4.17D-04
 IDIUse=3 WtCom= 9.92D-01 WtEn= 7.52D-03
 Coeff-Com:  0.232D+00 0.768D+00
 Coeff-En:   0.000D+00 0.100D+01
 Coeff:      0.231D+00 0.769D+00
 Gap=     0.394 Goal=   None    Shift=    0.000
 RMSDP=1.52D-04 MaxDP=2.10D-03 DE=-5.12D-04 OVMax= 2.91D-03

 Cycle   3  Pass 0  IDiag  1:
 E= -196.556915772247     Delta-E=       -0.000035345115 Rises=F Damp=F
 DIIS: error= 5.56D-04 at cycle   3 NSaved=   3.
 NSaved= 3 IEnMin= 3 EnMin= -196.556915772247     IErMin= 3 ErrMin= 5.56D-04
 ErrMax= 5.56D-04  0.00D+00 EMaxC= 1.00D-01 BMatC= 4.29D-05 BMatP= 8.17D-05
 IDIUse=3 WtCom= 9.94D-01 WtEn= 5.56D-03
 Coeff-Com: -0.739D-02 0.418D+00 0.590D+00
 Coeff-En:   0.000D+00 0.364D+00 0.636D+00
 Coeff:     -0.735D-02 0.417D+00 0.590D+00
 Gap=     0.394 Goal=   None    Shift=    0.000
 RMSDP=7.50D-05 MaxDP=9.98D-04 DE=-3.53D-05 OVMax= 1.36D-03

 Cycle   4  Pass 0  IDiag  1:
 E= -196.556958911716     Delta-E=       -0.000043139469 Rises=F Damp=F
 DIIS: error= 5.64D-05 at cycle   4 NSaved=   4.
 NSaved= 4 IEnMin= 4 EnMin= -196.556958911716     IErMin= 4 ErrMin= 5.64D-05
 ErrMax= 5.64D-05  0.00D+00 EMaxC= 1.00D-01 BMatC= 2.67D-07 BMatP= 4.29D-05
 IDIUse=1 WtCom= 1.00D+00 WtEn= 0.00D+00
 Coeff-Com: -0.682D-02 0.842D-01 0.162D+00 0.761D+00
 Coeff:     -0.682D-02 0.842D-01 0.162D+00 0.761D+00
 Gap=     0.394 Goal=   None    Shift=    0.000
 RMSDP=6.73D-06 MaxDP=7.71D-05 DE=-4.31D-05 OVMax= 1.16D-04

 Initial convergence to 1.0D-05 achieved.  Increase integral accuracy.
 Cycle   5  Pass 1  IDiag  1:
 E= -196.556993713561     Delta-E=       -0.000034801844 Rises=F Damp=F
 DIIS: error= 1.62D-05 at cycle   1 NSaved=   1.
 NSaved= 1 IEnMin= 1 EnMin= -196.556993713561     IErMin= 1 ErrMin= 1.62D-05
 ErrMax= 1.62D-05  0.00D+00 EMaxC= 1.00D-01 BMatC= 5.19D-08 BMatP= 5.19D-08
 IDIUse=1 WtCom= 1.00D+00 WtEn= 0.00D+00
 Coeff-Com:  0.100D+01
 Coeff:      0.100D+01
 Gap=     0.394 Goal=   None    Shift=    0.000
 RMSDP=6.73D-06 MaxDP=7.71D-05 DE=-3.48D-05 OVMax= 7.72D-05

 Cycle   6  Pass 1  IDiag  1:
 E= -196.556993759241     Delta-E=       -0.000000045680 Rises=F Damp=F
 DIIS: error= 1.18D-05 at cycle   2 NSaved=   2.
 NSaved= 2 IEnMin= 2 EnMin= -196.556993759241     IErMin= 2 ErrMin= 1.18D-05
 ErrMax= 1.18D-05  0.00D+00 EMaxC= 1.00D-01 BMatC= 2.01D-08 BMatP= 5.19D-08
 IDIUse=1 WtCom= 1.00D+00 WtEn= 0.00D+00
 Coeff-Com:  0.344D+00 0.656D+00
 Coeff:      0.344D+00 0.656D+00
 Gap=     0.394 Goal=   None    Shift=    0.000
 RMSDP=1.94D-06 MaxDP=3.76D-05 DE=-4.57D-08 OVMax= 4.40D-05

 Cycle   7  Pass 1  IDiag  1:
 E= -196.556993774456     Delta-E=       -0.000000015216 Rises=F Damp=F
 DIIS: error= 5.37D-06 at cycle   3 NSaved=   3.
 NSaved= 3 IEnMin= 3 EnMin= -196.556993774456     IErMin= 3 ErrMin= 5.37D-06
 ErrMax= 5.37D-06  0.00D+00 EMaxC= 1.00D-01 BMatC= 4.68D-09 BMatP= 2.01D-08
 IDIUse=1 WtCom= 1.00D+00 WtEn= 0.00D+00
 Coeff-Com: -0.221D-01 0.319D+00 0.703D+00
 Coeff:     -0.221D-01 0.319D+00 0.703D+00
 Gap=     0.394 Goal=   None    Shift=    0.000
 RMSDP=6.51D-07 MaxDP=1.20D-05 DE=-1.52D-08 OVMax= 1.50D-05

 Cycle   8  Pass 1  IDiag  1:
 E= -196.556993778962     Delta-E=       -0.000000004505 Rises=F Damp=F
 DIIS: error= 4.45D-07 at cycle   4 NSaved=   4.
 NSaved= 4 IEnMin= 4 EnMin= -196.556993778962     IErMin= 4 ErrMin= 4.45D-07
 ErrMax= 4.45D-07  0.00D+00 EMaxC= 1.00D-01 BMatC= 2.46D-11 BMatP= 4.68D-09
 IDIUse=1 WtCom= 1.00D+00 WtEn= 0.00D+00
 Coeff-Com: -0.106D-01 0.100D+00 0.232D+00 0.678D+00
 Coeff:     -0.106D-01 0.100D+00 0.232D+00 0.678D+00
 Gap=     0.394 Goal=   None    Shift=    0.000
 RMSDP=7.67D-08 MaxDP=8.26D-07 DE=-4.51D-09 OVMax= 1.31D-06

 Cycle   9  Pass 1  IDiag  1:
 E= -196.556993778976     Delta-E=       -0.000000000015 Rises=F Damp=F
 DIIS: error= 1.48D-07 at cycle   5 NSaved=   5.
 NSaved= 5 IEnMin= 5 EnMin= -196.556993778976     IErMin= 5 ErrMin= 1.48D-07
 ErrMax= 1.48D-07  0.00D+00 EMaxC= 1.00D-01 BMatC= 2.90D-12 BMatP= 2.46D-11
 IDIUse=1 WtCom= 1.00D+00 WtEn= 0.00D+00
 Coeff-Com: -0.358D-02 0.285D-01 0.674D-01 0.303D+00 0.604D+00
 Coeff:     -0.358D-02 0.285D-01 0.674D-01 0.303D+00 0.604D+00
 Gap=     0.394 Goal=   None    Shift=    0.000
 RMSDP=2.17D-08 MaxDP=4.41D-07 DE=-1.47D-11 OVMax= 4.34D-07

 Cycle  10  Pass 1  IDiag  1:
 E= -196.556993778979     Delta-E=       -0.000000000003 Rises=F Damp=F
 DIIS: error= 4.40D-08 at cycle   6 NSaved=   6.
 NSaved= 6 IEnMin= 6 EnMin= -196.556993778979     IErMin= 6 ErrMin= 4.40D-08
 ErrMax= 4.40D-08  0.00D+00 EMaxC= 1.00D-01 BMatC= 1.87D-13 BMatP= 2.90D-12
 IDIUse=1 WtCom= 1.00D+00 WtEn= 0.00D+00
 Coeff-Com: -0.211D-03-0.252D-03-0.147D-03 0.383D-01 0.231D+00 0.731D+00
 Coeff:     -0.211D-03-0.252D-03-0.147D-03 0.383D-01 0.231D+00 0.731D+00
 Gap=     0.394 Goal=   None    Shift=    0.000
 RMSDP=5.62D-09 MaxDP=9.53D-08 DE=-2.61D-12 OVMax= 9.94D-08

 SCF Done:  E(RB3LYP) =  -196.556993779     A.U. after   10 cycles
            NFock= 10  Conv=0.56D-08     -V/T= 2.0104
 KE= 1.945318528815D+02 PE=-8.271734243792D+02 EE= 2.494508181907D+02
 Leave Link  502 at Fri Mar 20 17:22:34 2026, MaxMem=   536870912 cpu:         7.0
 (Enter C:\G09W\l701.exe)
 Compute integral first derivatives.
 ... and contract with generalized density number  0.
 Leave Link  701 at Fri Mar 20 17:22:34 2026, MaxMem=   536870912 cpu:         0.0
 (Enter C:\G09W\l702.exe)
 L702 exits ... SP integral derivatives will be done elsewhere.
 Leave Link  702 at Fri Mar 20 17:22:34 2026, MaxMem=   536870912 cpu:         0.0
 (Enter C:\G09W\l703.exe)
 Compute integral first derivatives, UseDBF=F ICtDFT=           0.
 Integral derivatives from FoFJK, PRISM(SPDF).
 Calling FoFJK, ICntrl=      2127 FMM=F ISym2X=0 I1Cent= 0 IOpClX= 0 NMat=1 NMatS=1 NMatT=0.
 FoFJK:  IHMeth= 1 ICntrl=    2127 DoSepK=F KAlg= 0 I1Cent=   0 FoldK=F
 IRaf=         0 NMat=   1 IRICut=       1 DoRegI=T DoRafI=F ISym2E= 0.
 FoFCou: FMM=F IPFlag=           0 FMFlag=      100000 FMFlg1=         800
         NFxFlg=           0 DoJE=F BraDBF=F KetDBF=F FulRan=T
         wScrn=  0.000000 ICntrl=    2127 IOpCl=  0 I1Cent=           0 NGrid=           0
         NMat0=    1 NMatS0=      1 NMatT0=    0 NMatD0=    1 NMtDS0=    0 NMtDT0=    0
 Symmetry not used in FoFCou.
 Leave Link  703 at Fri Mar 20 17:22:36 2026, MaxMem=   536870912 cpu:         2.0
 (Enter C:\G09W\l716.exe)
 Dipole        =-5.43581882D-04-2.99222231D-03 8.15812237D-05
 ***** Axes restored to original set *****
 -------------------------------------------------------------------
 Center     Atomic                   Forces (Hartrees/Bohr)
 Number     Number              X              Y              Z
 -------------------------------------------------------------------
      1        6           0.002833590   -0.001006378    0.000379905
      2        6          -0.003029200    0.001317920    0.000154049
      3        6          -0.002917995   -0.001132858   -0.000117124
      4        6           0.002879175    0.000859311   -0.000420164
      5        6          -0.001458224   -0.000125804   -0.000029404
      6        1          -0.000577503   -0.000617261    0.000107916
      7        1          -0.000262789   -0.000637939   -0.000290638
      8        1           0.000598460    0.000064439   -0.000621603
      9        1           0.000352351   -0.000492984   -0.000464589
     10        1           0.000622153   -0.000094353    0.000600103
     11        1           0.000410313    0.000425417    0.000466844
     12        1          -0.000582332    0.000652463   -0.000078385
     13        1          -0.000229860    0.000713334    0.000309626
     14        1           0.000657629    0.000114907   -0.000197215
     15        1           0.000704232   -0.000040213    0.000200680
 -------------------------------------------------------------------
 Cartesian Forces:  Max     0.003029200 RMS     0.001029296
 Leave Link  716 at Fri Mar 20 17:22:36 2026, MaxMem=   536870912 cpu:         0.0
 (Enter C:\G09W\l103.exe)

 GradGradGradGradGradGradGradGradGradGradGradGradGradGradGradGradGradGrad
 Berny optimization.
 Using GEDIIS/GDIIS optimizer.
 FormGI is forming the generalized inverse of G from B-inverse, IUseBI=4.
 Internal  Forces:  Max     0.002071182 RMS     0.000458603
 Search for a local minimum.
 Step number   2 out of a maximum of  100
 All quantities printed in internal units (Hartrees-Bohrs-Radians)
 RMS Force = .45860D-03 SwitMx=.10000D-02 MixMth= 2
 Mixed Optimization -- En-DIIS/RFO-DIIS
 Update second derivatives using D2CorX and points    1    2
 DE= -2.07D-03 DEPred=-2.33D-03 R= 8.88D-01
 TightC=F SS=  1.41D+00  RLast= 1.79D-01 DXNew= 5.0454D-01 5.3594D-01
 Trust test= 8.88D-01 RLast= 1.79D-01 DXMaxT set to 5.05D-01
 ITU=  1  0
 Use linear search instead of GDIIS.
     Eigenvalues ---    0.00400   0.00581   0.02047   0.02138   0.04100
     Eigenvalues ---    0.04238   0.04565   0.04896   0.05150   0.05272
     Eigenvalues ---    0.05638   0.05672   0.06100   0.06848   0.06944
     Eigenvalues ---    0.07170   0.07355   0.07390   0.08843   0.08863
     Eigenvalues ---    0.11154   0.11392   0.20373   0.20654   0.26950
     Eigenvalues ---    0.26977   0.28889   0.29549   0.31870   0.33239
     Eigenvalues ---    0.33358   0.33823   0.33844   0.33978   0.34076
     Eigenvalues ---    0.34414   0.34543   0.35155   0.35284
 RFO step:  Lambda=-1.22699477D-04 EMin= 4.00381463D-03
 Quartic linear search produced a step of -0.05940.
 Iteration  1 RMS(Cart)=  0.00748742 RMS(Int)=  0.00003300
 Iteration  2 RMS(Cart)=  0.00003789 RMS(Int)=  0.00001663
 Iteration  3 RMS(Cart)=  0.00000000 RMS(Int)=  0.00001663
 ITry= 1 IFail=0 DXMaxC= 2.90D-02 DCOld= 1.00D+10 DXMaxT= 5.05D-01 DXLimC= 3.00D+00 Rises=F
 Variable       Old X    -DE/DX   Delta X   Delta X   Delta X     New X
                                 (Linear)    (Quad)   (Total)
    R1        2.92418  -0.00207  -0.00106  -0.00562  -0.00668   2.91750
    R2        2.94123  -0.00104  -0.00346   0.00247  -0.00098   2.94025
    R3        2.07389  -0.00013   0.00059  -0.00123  -0.00064   2.07326
    R4        2.07049  -0.00024   0.00009  -0.00081  -0.00072   2.06978
    R5        2.90220   0.00015  -0.00279   0.00357   0.00075   2.90296
    R6        2.07417   0.00068  -0.00059   0.00270   0.00211   2.07628
    R7        2.07106  -0.00019  -0.00100   0.00094  -0.00006   2.07100
    R8        2.92442  -0.00201  -0.00101  -0.00543  -0.00644   2.91798
    R9        2.07420   0.00068  -0.00059   0.00272   0.00212   2.07632
   R10        2.07096  -0.00015  -0.00099   0.00104   0.00005   2.07101
   R11        2.94137  -0.00105  -0.00340   0.00239  -0.00100   2.94037
   R12        2.07401  -0.00015   0.00067  -0.00139  -0.00072   2.07330
   R13        2.07060  -0.00029   0.00018  -0.00106  -0.00088   2.06972
   R14        2.07125  -0.00023   0.00028  -0.00105  -0.00077   2.07048
   R15        2.07125  -0.00026   0.00028  -0.00112  -0.00084   2.07040
    A1        1.83832   0.00048   0.00003  -0.00023  -0.00023   1.83809
    A2        1.90491   0.00032   0.00079   0.00456   0.00536   1.91027
    A3        1.96380  -0.00016  -0.00038   0.00035  -0.00004   1.96376
    A4        1.92547  -0.00051  -0.00077  -0.00335  -0.00411   1.92136
    A5        1.97263  -0.00050  -0.00083  -0.00445  -0.00526   1.96737
    A6        1.85897   0.00036   0.00115   0.00324   0.00437   1.86334
    A7        1.80861  -0.00031  -0.00058  -0.00398  -0.00460   1.80401
    A8        1.91734   0.00039  -0.00053   0.00668   0.00616   1.92350
    A9        1.96333   0.00038  -0.00100   0.00541   0.00444   1.96777
   A10        1.91416   0.00017   0.00141  -0.00035   0.00108   1.91524
   A11        1.98250  -0.00028  -0.00105  -0.00181  -0.00280   1.97970
   A12        1.87736  -0.00031   0.00166  -0.00544  -0.00381   1.87355
   A13        1.80868  -0.00038  -0.00065  -0.00407  -0.00476   1.80392
   A14        1.91423   0.00017   0.00141  -0.00048   0.00094   1.91517
   A15        1.98215  -0.00021  -0.00103  -0.00122  -0.00220   1.97996
   A16        1.91748   0.00040  -0.00055   0.00649   0.00594   1.92342
   A17        1.96337   0.00039  -0.00093   0.00541   0.00452   1.96789
   A18        1.87741  -0.00034   0.00165  -0.00563  -0.00401   1.87340
   A19        1.83805   0.00050   0.00005  -0.00003  -0.00001   1.83804
   A20        1.90484   0.00033   0.00071   0.00484   0.00556   1.91040
   A21        1.96370  -0.00016  -0.00048   0.00049   0.00001   1.96371
   A22        1.92585  -0.00053  -0.00065  -0.00364  -0.00429   1.92156
   A23        1.97313  -0.00052  -0.00069  -0.00507  -0.00575   1.96738
   A24        1.85855   0.00038   0.00106   0.00354   0.00457   1.86313
   A25        1.85519  -0.00060   0.00013  -0.00430  -0.00420   1.85099
   A26        1.94580  -0.00003  -0.00019  -0.00112  -0.00131   1.94448
   A27        1.93548   0.00015  -0.00040  -0.00019  -0.00057   1.93490
   A28        1.93456   0.00022  -0.00055   0.00118   0.00064   1.93520
   A29        1.94512   0.00001  -0.00036  -0.00057  -0.00094   1.94418
   A30        1.84945   0.00026   0.00132   0.00501   0.00632   1.85578
    D1       -0.56831  -0.00032  -0.00113  -0.01274  -0.01386  -0.58217
    D2        1.47579  -0.00011  -0.00004  -0.01220  -0.01225   1.46354
    D3       -2.71671   0.00001   0.00103  -0.01096  -0.00991  -2.72662
    D4        1.49895  -0.00049  -0.00162  -0.01451  -0.01612   1.48283
    D5       -2.74013  -0.00028  -0.00053  -0.01396  -0.01451  -2.75464
    D6       -0.64945  -0.00016   0.00054  -0.01273  -0.01218  -0.66162
    D7       -2.72463   0.00007   0.00011  -0.00728  -0.00716  -2.73179
    D8       -0.68052   0.00028   0.00119  -0.00674  -0.00555  -0.68607
    D9        1.41016   0.00040   0.00227  -0.00551  -0.00322   1.40695
   D10        0.21539   0.00027   0.00037   0.00596   0.00633   0.22172
   D11       -1.89458   0.00040   0.00106   0.00789   0.00895  -1.88562
   D12        2.33228   0.00000  -0.00021   0.00246   0.00226   2.33453
   D13       -1.83803  -0.00012  -0.00019   0.00240   0.00222  -1.83581
   D14        2.33519   0.00001   0.00050   0.00433   0.00484   2.34003
   D15        0.27886  -0.00039  -0.00077  -0.00110  -0.00186   0.27700
   D16        2.36608   0.00010  -0.00058   0.00353   0.00295   2.36904
   D17        0.25611   0.00023   0.00011   0.00547   0.00557   0.26169
   D18       -1.80022  -0.00017  -0.00116   0.00004  -0.00112  -1.80134
   D19        0.70367   0.00027   0.00091   0.01528   0.01619   0.71987
   D20       -1.34288  -0.00007   0.00126   0.01014   0.01140  -1.33148
   D21        2.83929   0.00038  -0.00118   0.01851   0.01732   2.85661
   D22       -1.34266  -0.00010   0.00120   0.00981   0.01101  -1.33164
   D23        2.89397  -0.00044   0.00155   0.00467   0.00622   2.90019
   D24        0.79295   0.00002  -0.00090   0.01304   0.01214   0.80510
   D25        2.83939   0.00037  -0.00124   0.01823   0.01699   2.85638
   D26        0.79283   0.00003  -0.00089   0.01309   0.01220   0.80503
   D27       -1.30818   0.00048  -0.00333   0.02146   0.01812  -1.29006
   D28       -0.56879  -0.00029  -0.00107  -0.01177  -0.01283  -0.58162
   D29        1.49873  -0.00047  -0.00146  -0.01362  -0.01508   1.48365
   D30       -2.72548   0.00012   0.00003  -0.00576  -0.00571  -2.73119
   D31        1.47549  -0.00011  -0.00004  -0.01151  -0.01156   1.46394
   D32       -2.74017  -0.00029  -0.00043  -0.01336  -0.01381  -2.75398
   D33       -0.68119   0.00030   0.00106  -0.00550  -0.00444  -0.68563
   D34       -2.71683   0.00000   0.00107  -0.01065  -0.00956  -2.72639
   D35       -0.64931  -0.00018   0.00068  -0.01251  -0.01181  -0.66113
   D36        1.40967   0.00040   0.00217  -0.00464  -0.00244   1.40722
   D37        0.21616   0.00026   0.00032   0.00446   0.00479   0.22095
   D38        2.33334  -0.00003  -0.00014   0.00110   0.00096   2.33430
   D39       -1.89454   0.00045   0.00093   0.00775   0.00868  -1.88586
   D40       -1.83721  -0.00015  -0.00021   0.00060   0.00040  -1.83681
   D41        0.27998  -0.00043  -0.00067  -0.00277  -0.00344   0.27654
   D42        2.33528   0.00005   0.00040   0.00388   0.00429   2.33957
   D43        2.36684   0.00009  -0.00065   0.00198   0.00133   2.36818
   D44       -1.79916  -0.00020  -0.00111  -0.00139  -0.00251  -1.80166
   D45        0.25615   0.00028  -0.00004   0.00526   0.00522   0.26136
         Item               Value     Threshold  Converged?
 Maximum Force            0.002071     0.000450     NO 
 RMS     Force            0.000459     0.000300     NO 
 Maximum Displacement     0.028974     0.001800     NO 
 RMS     Displacement     0.007499     0.001200     NO 
 Predicted change in Energy=-6.965595D-05
 Lowest energy point so far.  Saving SCF results.
 GradGradGradGradGradGradGradGradGradGradGradGradGradGradGradGradGradGrad

 Leave Link  103 at Fri Mar 20 17:22:37 2026, MaxMem=   536870912 cpu:         0.0
 (Enter C:\G09W\l202.exe)
                          Input orientation:                          
 ---------------------------------------------------------------------
 Center     Atomic      Atomic             Coordinates (Angstroms)
 Number     Number       Type             X           Y           Z
 ---------------------------------------------------------------------
      1          6           0       -0.341699    1.244625    0.123272
      2          6           0        1.049132    0.702632   -0.270909
      3          6           0        1.026423   -0.743478    0.246869
      4          6           0       -0.393914   -1.229558   -0.114654
      5          6           0       -1.303368    0.026304    0.014838
      6          1           0       -0.311743    1.610133    1.157284
      7          1           0       -0.655465    2.088142   -0.500959
      8          1           0        1.161049    0.703639   -1.363915
      9          1           0        1.869514    1.300506    0.142100
     10          1           0        1.163495   -0.749354    1.337011
     11          1           0        1.812605   -1.373450   -0.184545
     12          1           0       -0.402551   -1.596276   -1.148657
     13          1           0       -0.726579   -2.059804    0.517484
     14          1           0       -1.968582    0.117644   -0.850959
     15          1           0       -1.951524   -0.038758    0.895760
 ---------------------------------------------------------------------
                    Distance matrix (angstroms):
                    1          2          3          4          5
     1  C    0.000000
     2  C    1.543874   0.000000
     3  C    2.416524   1.536178   0.000000
     4  C    2.486145   2.416641   1.544128   0.000000
     5  C    1.555915   2.464413   2.464616   1.555977   0.000000
     6  H    1.097121   2.171468   2.856401   3.112623   2.190210
     7  H    1.095278   2.208668   3.377287   3.350339   2.221936
     8  H    2.182348   1.098721   2.169538   2.777736   2.903979
     9  H    2.212000   1.095928   2.213515   3.404447   3.421545
    10  H    2.777539   2.169504   1.098741   2.182533   2.904342
[...]
   A24        1.86392  -0.00001   0.00000  -0.00141  -0.00148   1.86244
   A25        1.84994   0.00001   0.00000   0.00000  -0.00055   1.84938
   A26        1.94432   0.00000   0.00000  -0.00484  -0.00470   1.93963
   A27        1.93417  -0.00001   0.00000   0.00336   0.00352   1.93770
   A28        1.93413   0.00000   0.00000  -0.00335  -0.00320   1.93093
   A29        1.94443   0.00000   0.00000   0.00495   0.00511   1.94954
   A30        1.85846   0.00000   0.00000  -0.00012  -0.00020   1.85826
    D1       -0.58470   0.00000   0.00000  -0.03413  -0.03409  -0.61879
    D2        1.45820   0.00000   0.00000  -0.03407  -0.03408   1.42412
    D3       -2.73118   0.00000   0.00000  -0.03245  -0.03242  -2.76360
    D4        1.47738   0.00000   0.00000  -0.03750  -0.03751   1.43987
    D5       -2.76290   0.00000   0.00000  -0.03744  -0.03750  -2.80040
    D6       -0.66909   0.00000   0.00000  -0.03582  -0.03584  -0.70493
    D7       -2.73460   0.00000   0.00000  -0.03519  -0.03512  -2.76972
    D8       -0.69170  -0.00001   0.00000  -0.03512  -0.03511  -0.72681
    D9        1.40211  -0.00001   0.00000  -0.03350  -0.03345   1.36866
   D10        0.22298   0.00000   0.00000   0.05438   0.05438   0.27736
   D11       -1.88233  -0.00001   0.00000   0.06119   0.06123  -1.82110
   D12        2.33503   0.00000   0.00000   0.06227   0.06222   2.39725
   D13       -1.83270   0.00000   0.00000   0.05921   0.05925  -1.77345
   D14        2.34517   0.00000   0.00000   0.06601   0.06610   2.41127
   D15        0.27935   0.00001   0.00000   0.06709   0.06709   0.34644
   D16        2.37343   0.00000   0.00000   0.05718   0.05714   2.43058
   D17        0.26812   0.00000   0.00000   0.06398   0.06399   0.33211
   D18       -1.79770   0.00001   0.00000   0.06506   0.06498  -1.73271
   D19        0.72392  -0.00001   0.00000   0.00023   0.00013   0.72405
   D20       -1.32586   0.00001   0.00000  -0.00041  -0.00044  -1.32630
   D21        2.86518   0.00000   0.00000   0.00131   0.00124   2.86642
   D22       -1.32586   0.00000   0.00000   0.00156   0.00153  -1.32433
   D23        2.90754   0.00002   0.00000   0.00092   0.00096   2.90850
   D24        0.81540   0.00000   0.00000   0.00264   0.00264   0.81804
   D25        2.86518  -0.00001   0.00000  -0.00073  -0.00080   2.86438
   D26        0.81539   0.00001   0.00000  -0.00137  -0.00137   0.81403
   D27       -1.27675  -0.00001   0.00000   0.00035   0.00032  -1.27643
   D28       -0.58413   0.00001   0.00000   0.03375   0.03379  -0.55035
   D29        1.47800   0.00001   0.00000   0.03691   0.03690   1.51490
   D30       -2.73399   0.00000   0.00000   0.03433   0.03439  -2.69960
   D31        1.45875   0.00000   0.00000   0.03325   0.03323   1.49199
   D32       -2.76230   0.00000   0.00000   0.03641   0.03635  -2.72595
   D33       -0.69110  -0.00001   0.00000   0.03382   0.03384  -0.65726
   D34       -2.73065   0.00000   0.00000   0.03173   0.03175  -2.69890
   D35       -0.66851   0.00000   0.00000   0.03489   0.03487  -0.63365
   D36        1.40268  -0.00001   0.00000   0.03230   0.03236   1.43504
   D37        0.22206  -0.00001   0.00000  -0.05426  -0.05425   0.16782
   D38        2.33397   0.00000   0.00000  -0.06200  -0.06204   2.27193
   D39       -1.88335  -0.00001   0.00000  -0.06114  -0.06109  -1.94445
   D40       -1.83370   0.00000   0.00000  -0.05874  -0.05869  -1.89240
   D41        0.27820   0.00000   0.00000  -0.06648  -0.06648   0.21172
   D42        2.34406   0.00000   0.00000  -0.06562  -0.06554   2.27852
   D43        2.37245   0.00000   0.00000  -0.05665  -0.05668   2.31577
   D44       -1.79883   0.00001   0.00000  -0.06439  -0.06447  -1.86330
   D45        0.26704   0.00000   0.00000  -0.06353  -0.06352   0.20351
         Item               Value     Threshold  Converged?
 Maximum Force            0.000019     0.000450     YES
 RMS     Force            0.000006     0.000300     YES
 Maximum Displacement     0.095325     0.001800     NO 
 RMS     Displacement     0.029600     0.001200     NO 
 Predicted change in Energy=-1.585447D-06
 GradGradGradGradGradGradGradGradGradGradGradGradGradGradGradGradGradGrad

 Leave Link  103 at Fri Mar 20 17:24:14 2026, MaxMem=   536870912 cpu:         0.0
 (Enter C:\G09W\l9999.exe)
 1|1|UNPC-DESKTOP-GS7R1K3|Freq|RB3LYP|6-31G(d)|C5H10|1172|20-Mar-2026|0
 ||#P Geom=AllCheck Guess=TCheck SCRF=Check GenChk RB3LYP/6-31G(d) Freq
 ||cyclopentane ml||0,1|C,-0.3402413553,1.2446658459,0.1238528924|C,1.0
 474904175,0.7023401928,-0.2719197001|C,1.0247315814,-0.7431580198,0.24
 79218306|C,-0.3923928828,-1.2296394659,-0.1150745129|C,-1.3029846873,0
 .0262465681,0.0149004276|H,-0.3090576259,1.6062706371,1.1593292162|H,-
 0.6569191385,2.089608664,-0.4970462978|H,1.1555473594,0.6994634729,-1.
 3654156594|H,1.8718767335,1.2987874368,0.1350318223|H,1.1583164894,-0.
 7450585741,1.3385937367|H,1.8149499239,-1.3718235638,-0.1778681421|H,-
 0.3997323005,-1.5923384019,-1.1506058946|H,-0.7280428257,-2.0611748336
 ,0.5138996807|H,-1.9665608944,0.1173830512,-0.851897708|H,-1.950188794
 7,-0.0386260096,0.8963183084||Version=EM64W-G09RevD.01|State=1-A|HF=-1
 96.5570931|RMSD=3.488e-009|RMSF=1.846e-005|ZeroPoint=0.1413855|Thermal
 =0.145672|Dipole=-0.0024001,0.0000426,0.0000176|DipoleDeriv=0.0618805,
 0.0047642,0.0335128,-0.0098933,0.0953783,-0.0298085,0.0109035,0.031070
 9,0.1613456,0.0893521,0.0186893,0.0423192,0.0095656,0.0725424,0.044682
 7,-0.0289594,-0.0081711,0.1602043,0.087863,-0.0195421,-0.0388253,-0.00
 91612,0.073531,0.0465372,0.0303339,-0.0088853,0.1604636,0.0611098,-0.0
 026684,-0.0323756,0.0106139,0.0951728,-0.0286407,-0.0073924,0.0314426,
 0.1622943,0.0885201,-0.0009085,0.0004485,-0.0009443,0.0529205,-0.01642
 61,0.0005176,-0.0161274,0.1573697,-0.0029041,-0.0209328,-0.0038413,-0.
 013108,-0.0102344,-0.0470747,0.0095079,-0.1010312,-0.1520615,-0.008169
 9,0.0617653,-0.0277924,0.0479456,-0.1362518,0.0705059,-0.0325892,0.101
 5422,-0.0082023,0.0136049,0.0217468,0.0082752,0.0229527,0.0068061,-0.0
 089439,0.0516567,0.0206308,-0.1847297,-0.1208208,-0.0984591,-0.0331339
 ,-0.1021967,-0.0547881,-0.0265427,-0.0573361,-0.0403576,0.0265173,0.01
 03008,-0.0214034,-0.0131649,-0.0233188,0.0085808,-0.0080003,-0.0553694
 ,0.0232613,-0.1832133,-0.1105953,0.0997212,0.0352853,0.1038062,-0.0628
 699,-0.030317,0.0589212,-0.0449884,0.0243638,-0.0018903,0.018247,-0.00
 15444,0.0116366,-0.0116283,-0.047501,-0.0170326,-0.1010407,-0.1516623,
 -0.0111875,-0.0643522,0.0306375,-0.051233,-0.1316301,0.0705293,0.03668
 38,0.1016964,-0.0097938,-0.0803333,0.007033,-0.0821618,0.0237097,0.000
 6789,0.0068954,-0.1295137,0.0080116,-0.0790969,-0.07673,-0.0037002,0.0
 82361,-0.0203749,0.001792,0.0041043,0.1296681,0.0029458,-0.0837989|Pol
 ar=51.8440115,0.0005148,51.8910998,-0.0525289,-0.0291313,47.3240872|PG
 =C01 [X(C5H10)]|NImag=1||0.41661811,-0.05435598,0.54988364,0.02911784,
 -0.02049595,0.58725388,-0.15110087,0.03117960,0.02494483,0.52699156,0.
 03351955,-0.08524975,-0.01073944,0.08934369,0.47181752,0.02309440,-0.0
 1248946,-0.09092740,0.02015629,0.02711305,0.57924565,-0.01002988,0.025
 51686,-0.00943072,-0.07204742,-0.00350461,0.00010710,0.51874437,0.0176
 2208,-0.02533058,0.00602959,0.00093618,-0.16438981,0.03388135,-0.09097
 827,0.47877922,-0.00029100,-0.00625939,0.00706674,0.00065439,0.0338742
 0,-0.09693282,-0.01764622,0.03007341,0.58013033,0.01110054,-0.00431701
 ,-0.00213035,-0.01153133,-0.01804051,0.00046448,-0.15455719,-0.0308997
 1,-0.02206891,0.41962333,0.00249756,-0.03395380,0.00003677,-0.02634019
 ,-0.02362109,-0.00568887,-0.02851295,-0.08263879,-0.01094346,0.0589989
 8,0.54524248,0.00187860,0.00002921,0.00092573,0.01012237,0.00606214,0.
 00683060,-0.02393281,-0.00909430,-0.08980223,-0.02598064,-0.02061838,0
 .58847766,-0.10579713,-0.04338881,-0.00819238,-0.03159190,-0.01662511,
 -0.00189360,-0.03057097,0.01820252,0.00273773,-0.10211510,0.04244951,0
 .00835515,0.55006984,-0.04100764,-0.12318011,-0.00701375,-0.00863764,0
 .00488154,0.00210546,0.01009845,0.00381937,0.00178870,0.03999647,-0.12
 650500,-0.00826762,-0.00347580,0.38565968,-0.00267913,-0.00442916,-0.0
 8177958,0.00647451,0.00764825,0.00329976,-0.00537187,0.00745467,0.0033
 6766,0.00293902,-0.00548560,-0.08197616,0.00019599,-0.01672218,0.59743
 711,-0.04628519,0.00036942,-0.00929564,-0.00132742,0.00911693,0.032362
 95,0.00057886,-0.00086086,0.00038198,-0.00140275,-0.00007794,-0.000440
 16,-0.00380598,-0.00827973,-0.01973563,0.05604843,0.00027614,-0.077566
 89,-0.07666890,-0.00074148,-0.00291229,-0.01021866,-0.00039130,0.00046
 879,-0.00067373,-0.00112817,-0.00084624,0.00039909,-0.00305313,-0.0079
 9591,-0.02277003,0.00408751,0.08092743,-0.00902362,-0.07660894,-0.2811
 7763,0.00081966,-0.00168594,-0.00885778,-0.00050515,0.00018538,-0.0000
 0169,-0.00003441,0.00003705,0.00006766,0.00019362,0.00116796,-0.000294
 61,0.00657957,0.08440997,0.30294180,-0.06935451,0.05830987,-0.04404516
 ,-0.00619131,0.02268893,-0.01815079,-0.00581417,0.00123106,0.00238856,
 -0.00244505,-0.00209447,0.00048044,0.00575333,-0.01611699,0.01167680,-
 0.00002296,0.00026831,-0.00057189,0.07524898,0.05807269,-0.20124609,0.
 11601191,0.00151534,-0.00613788,0.00472550,0.00092435,-0.00118035,-0.0
 0121862,-0.00122254,-0.00219572,0.00054286,0.00715369,-0.01520961,0.01
 233375,-0.00354612,0.00949467,-0.00585272,-0.06330782,0.21814103,-0.04
 494208,0.11804282,-0.13948410,0.00321896,-0.00905790,0.00555627,0.0013
 2172,-0.00120712,-0.00005558,0.00024012,-0.00151205,-0.00003729,0.0014
 0631,-0.00443585,0.00187799,-0.00984727,0.02486689,-0.01879956,0.04846
 725,-0.12565234,0.14727708,-0.00299650,0.00202521,0.03079756,-0.053726
 54,-0.00391687,0.02202484,-0.00043693,0.00100425,-0.00255063,0.0003058
 7,-0.00010932,0.00037176,0.00061600,0.00046842,-0.00034892,-0.00533817
 ,0.00148286,0.00192542,0.00195343,-0.00029198,-0.00051537,0.05561079,0
 .00228490,-0.00212771,-0.01475339,-0.00392986,-0.04873897,-0.00301035,
 -0.00202411,-0.00076293,0.03421060,0.00082449,0.00106835,0.00029628,-0
 .00009843,-0.00008949,-0.00010100,0.00359572,-0.00007275,-0.00077330,-
 0.00081294,0.00047541,-0.00010038,-0.00128499,0.05432316,0.00049453,-0
 .00105392,-0.00730607,0.02183079,-0.00288126,-0.30052238,-0.00007905,0
 .00043674,-0.01192293,-0.00010736,-0.00060034,0.00025744,0.00010052,0.
 00002362,0.00000959,0.00170686,-0.00019290,0.00118991,0.00016825,-0.00
 033496,0.00128219,-0.02562499,0.00124199,0.32677851,-0.01792578,-0.016
 21872,-0.01039304,-0.19463531,-0.10626380,-0.07531290,0.00276194,0.002
 44329,0.00171988,-0.00082083,0.00135266,0.00020705,-0.00342796,0.00165
 201,0.00164451,0.00167779,-0.00021569,0.00039124,-0.00064119,0.0005147
 8,-0.00010384,0.00299839,0.00222782,0.00064972,0.21094862,0.01083465,0
 .00855048,0.00549919,-0.10627264,-0.12517686,-0.05435685,-0.02317995,-
 0.01302610,-0.01297532,0.00031386,-0.00539851,0.00327655,0.00250116,-0
 .00195550,-0.00062471,-0.00085965,0.00075493,0.00036526,-0.00011865,-0
 .00023150,0.00026179,0.00054607,0.00019565,-0.00032942,0.11687535,0.13
 423582,0.00704311,0.00548135,0.00242319,-0.07721896,-0.05577636,-0.090
 01856,0.00975610,0.00589103,0.00387080,0.00111659,0.00175228,-0.000260
 48,0.00207241,0.00073004,0.00023991,-0.00005208,0.00056961,0.00102256,
 -0.00016849,-0.00011721,0.00001222,-0.02520411,-0.01833507,-0.01248968
 ,0.08104963,0.05948181,0.09359332,0.00027830,0.00011133,-0.00035379,-0
 .00032621,-0.00098199,0.00362457,-0.05455628,0.00404170,-0.02789530,-0
 .00388995,-0.00200313,-0.03140631,0.00060064,-0.00049176,0.00033075,0.
 00021431,0.00042065,-0.00000858,-0.00000732,-0.00003348,0.00014126,0.0
 0095053,-0.00112631,0.00019539,0.00017223,0.00037492,0.00034877,0.0570
 3226,-0.00079336,0.00110564,0.00032403,0.00282504,-0.00085580,0.034051
 67,0.00406356,-0.04903577,-0.00211343,-0.00256502,-0.00194926,-0.01345
 970,0.00006794,-0.00007725,-0.00011750,0.00042406,-0.00029224,-0.00047
 667,-0.00030560,0.00007043,-0.00034795,0.00090240,-0.00615986,0.002524
 72,-0.00036153,0.00185313,-0.00056472,0.00122949,0.05421595,0.00008501
 ,-0.00061958,0.00026476,-0.00019904,0.00048353,-0.01199499,-0.02765643
 ,-0.00201214,-0.29937543,-0.00061137,-0.00098242,-0.00655460,-0.000110
 59,0.00004161,0.00000796,-0.00049958,0.00050274,0.00044475,-0.00002791
 ,0.00018949,0.00033749,-0.00009576,0.00255444,0.00086913,0.00040114,0.
 00020169,0.00095955,0.03195801,0.00006576,0.32542829,-0.00091924,-0.00
 149194,-0.00006125,0.00328404,-0.00295430,-0.00222405,-0.18254595,0.10
 726080,0.07529820,-0.01757400,0.01738304,0.01107607,-0.00367404,-0.001
 56677,-0.00157374,-0.00003500,0.00009453,0.00017584,0.00036993,0.00016
 936,0.00007577,0.00015809,0.00041913,-0.00037424,-0.00002024,0.0004301
 3,-0.00024071,0.00343245,-0.00278380,-0.00103550,0.19778378,-0.0004168
 5,-0.00532854,0.00329053,0.02221593,-0.01382120,-0.01342658,0.10730114
 ,-0.13371070,-0.05986261,-0.00966475,0.00828791,0.00530751,-0.00244639
 ,-0.00179265,-0.00050173,-0.00018743,0.00006557,-0.00014367,0.00183707
 ,-0.00055010,-0.00049546,-0.00030150,0.00185315,0.00022342,-0.00044540
 ,-0.00026319,-0.00025148,-0.00066909,0.00032199,-0.00028227,-0.1180345
 3,0.14361372,-0.00103014,0.00182974,-0.00023383,-0.00948827,0.00633379
 ,0.00414311,0.07714656,-0.06135535,-0.09357959,-0.00635616,0.00535571,
 0.00232836,-0.00195216,0.00084763,0.00032399,-0.00030327,0.00036051,0.
 00027716,-0.00047064,0.00035803,0.00032839,-0.00035218,-0.00056062,0.0
 0097749,0.00023176,-0.00027016,0.00003666,0.02408025,-0.01926099,-0.01
 304400,-0.08110000,0.06547216,0.09738057,-0.00134501,0.00010039,0.0004
 8693,0.00063254,0.00085623,-0.00042285,-0.00244246,-0.00919051,-0.0328
 8879,-0.04620202,-0.00340254,0.00076852,-0.00292237,0.00812389,0.01886
 742,0.00012806,0.00014160,0.00001549,0.00020221,0.00015308,0.00004014,
 0.00018665,-0.00046024,0.00052245,-0.00002788,0.00018703,0.00032475,-0
 .00561288,-0.00339212,-0.00155549,0.00171255,0.00083052,0.00005458,0.0
 5574596,0.00115855,-0.00089965,0.00035354,0.00037749,0.00041620,-0.000
 66952,0.00049414,-0.00256246,-0.00892199,-0.00332499,-0.07751109,-0.07
 694028,0.00231768,-0.00845358,-0.02360601,-0.00014570,0.00000044,0.000
 04393,-0.00021623,-0.00044308,-0.00012648,-0.00042633,-0.00027316,0.00
 048728,-0.00008306,0.00006138,0.00035021,-0.00126615,0.00012097,-0.000
 09471,0.00019295,0.00071650,0.00056181,-0.00112665,0.08124893,0.000066
 47,0.00003663,0.00005712,0.00049953,0.00013970,-0.00000538,-0.00103543
 ,-0.00142804,-0.00807899,0.00049689,-0.07689030,-0.28132163,-0.0000894
 8,0.00099101,-0.00072453,-0.00001639,0.00004182,-0.00000460,-0.0000225
 8,-0.00016939,-0.00002603,-0.00000541,-0.00046208,0.00043138,-0.000174
 28,-0.00014150,0.00027329,-0.00179604,-0.00061742,0.00127100,-0.000393
 52,0.00036095,0.00102869,0.00254474,0.08467923,0.30295292,-0.00232664,
 0.00206385,-0.00040667,-0.00597320,-0.00106801,-0.00229643,-0.00681666
 ,-0.02285769,0.01861192,-0.07195139,-0.06065735,0.04707473,0.00577314,
 0.01515573,-0.01126427,0.00020228,0.00018658,0.00001068,0.00066382,0.0
 0047836,0.00007682,0.00000392,0.00029996,0.00004337,0.00029761,-0.0018
 8083,0.00048400,0.00200348,0.00074741,-0.00019809,-0.00064935,0.000141
 29,0.00017850,0.00036884,0.00067519,-0.00010896,0.07808331,0.00123594,
 -0.00232487,0.00053323,-0.00075702,-0.00110550,-0.00110573,-0.00138675
 ,-0.00516978,0.00403024,-0.06048405,-0.19638063,0.11561664,-0.00769391
 ,-0.01553063,0.01297245,-0.00018283,-0.00044296,-0.00016668,-0.0005427
 9,-0.00082567,-0.00020204,0.00004026,0.00005654,0.00018719,-0.00019473
 ,-0.00046893,0.00034315,0.00022350,0.00043303,-0.00033168,-0.00049958,
 -0.00021651,-0.00011314,0.00378601,0.00935143,-0.00596417,0.06591068,0
 .21284064,-0.00024710,-0.00154793,-0.00002299,-0.00123114,-0.00112741,
 0.00002945,-0.00329446,-0.00839552,0.00520901,0.04805383,0.11760937,-0
 .14176947,-0.00166817,-0.00473029,0.00217716,-0.00005057,-0.00012907,-
 0.00002532,-0.00010050,-0.00020968,-0.00002268,-0.00014676,-0.00034890
 ,0.00033933,-0.00009457,-0.00044862,0.00031881,0.00049187,-0.00013987,
 0.00127666,0.00012869,0.00025353,0.00000541,0.01038644,0.02444253,-0.0
 1905132,-0.05183446,-0.12519551,0.14976261,-0.00916885,0.00177906,-0.0
 1539629,-0.00050026,-0.00008730,-0.00051507,-0.00179329,0.00198453,0.0
 0104951,-0.01021333,0.00197324,-0.01323716,-0.14180823,0.01201073,-0.1
 2380315,-0.00174720,-0.00171404,0.00019841,0.00149822,0.00029416,0.000
 36342,-0.00037879,0.00004460,0.00036328,-0.00044328,-0.00001243,0.0003
 8515,0.00009467,-0.00004254,-0.00010492,-0.00088938,-0.00020186,-0.000
 27537,0.00109593,-0.00026119,0.00019358,-0.00113067,0.00085167,-0.0000
 1573,0.15200765,-0.01469542,-0.00018439,-0.02263311,-0.00062275,-0.001
 09315,-0.00045519,0.00098798,-0.00413444,-0.00051761,0.01700827,-0.002
 89604,0.02040504,0.01243286,-0.04717681,0.01932946,-0.00385091,-0.0031
 7013,-0.00055511,0.00063053,0.00147315,-0.00021976,-0.00015897,0.00024
 035,0.00013849,-0.00037719,0.00029682,0.00027404,-0.00001991,0.0000150
 5,0.00013432,0.00096663,0.00054325,0.00016103,-0.00037435,0.00161464,0
 .00005796,0.00144047,-0.00173171,0.00015515,-0.01475325,0.05607485,0.0
 0093832,-0.00056639,-0.00040479,0.00019245,-0.00001480,-0.00028334,0.0
 0081052,-0.00044981,0.00039501,0.00475995,-0.00157613,0.00354925,-0.12
 481405,0.01911951,-0.21921916,-0.00047270,-0.00048117,0.00112496,0.000
 09224,-0.00046435,0.00139501,0.00000035,0.00008623,0.00001141,-0.00011
 358,0.00003904,-0.00000146,0.00027752,0.00004530,0.00009054,0.00012395
 ,0.00002194,0.00002347,0.00034119,-0.00002145,0.00208149,-0.00025603,-
 0.00015109,0.00036716,0.13481588,-0.01822844,0.23375882,-0.01074734,-0
 .00168313,0.01435811,-0.00195639,-0.00208284,-0.00101893,-0.00047397,0
 .00006064,0.00049869,-0.00832679,-0.00145710,0.01466239,-0.13709928,-0
 .00792937,0.12264771,0.00111495,0.00028562,-0.00016629,-0.00121341,-0.
 00087388,0.00005678,0.00009326,0.00004027,0.00011048,-0.00091412,0.000
 26098,0.00030385,-0.00038622,-0.00001593,-0.00034949,-0.00043365,0.000
 04186,-0.00036347,-0.00152014,0.00163430,-0.00015913,0.00145151,-0.000
 30639,-0.00037740,0.01337678,0.00138600,-0.01669601,0.14703483,-0.0162
 3281,-0.00214739,0.02022576,-0.00109169,-0.00401297,-0.00045581,0.0005
 9145,-0.00112567,-0.00049098,0.01450467,-0.00070256,-0.02355504,-0.008
 34377,-0.04639404,0.01461932,0.00039754,0.00158758,0.00005348,-0.00145
 028,-0.00163468,0.00018583,0.00002049,0.00001227,0.00012934,-0.0009057
 9,0.00057237,0.00017132,0.00019024,0.00023397,0.00014922,0.00041435,0.
 00028081,0.00027985,0.00376765,-0.00338748,-0.00063442,-0.00063563,0.0
 0151556,-0.00018779,-0.00186540,0.00012856,0.00264162,0.01063897,0.055
 07365,-0.00450522,-0.00134904,0.00334498,-0.00077639,-0.00037155,0.000
 43780,-0.00018987,-0.00000988,-0.00029029,-0.00078168,-0.00049363,-0.0
 0071483,0.12365869,0.01435414,-0.22474709,-0.00031807,-0.00001618,0.00
 209241,0.00028441,-0.00014225,0.00035862,-0.00027578,0.00005554,0.0000
 9470,-0.00010272,0.00002125,0.00001990,0.00001163,0.00008677,0.0000188
 7,0.00012449,0.00003377,0.00000411,0.00051446,-0.00053810,0.00111659,-
 0.00011511,-0.00045287,0.00140618,0.01597847,0.00195373,-0.02288836,-0
 .13350730,-0.01313171,0.23974642||0.00002467,0.00000442,0.00003769,-0.
 00003209,0.00000086,-0.00001868,-0.00006588,-0.00000246,0.00002207,0.0
 0002240,0.00000301,-0.00004844,-0.00002845,-0.00000476,0.00000854,-0.0
 0000521,-0.00001137,0.00000320,0.00000214,-0.00001127,0.00000109,0.000
 02385,0.00001118,0.00000278,0.00001019,-0.00000540,0.00000747,0.000029
 58,-0.00001493,-0.00000177,0.00000600,0.00000501,-0.00000897,-0.000006
 62,0.00001661,-0.00000455,-0.00000163,0.00001249,-0.00000105,0.0000107
 1,0.00000703,-0.00000045,0.00001035,-0.00001043,0.00000107|||@


 SEEN ON A WALL AT THE UNIVERSITY OF ILLINOIS AT CHICAGO CIRCLE:

 TO DO IS TO BE  -- SOCRATES
 TO BE IS TO DO  -- SARTRE
 OO BE DO BE DO  -- SINATRA
 Job cpu time:       0 days  0 hours  1 minutes  6.0 seconds.
 File lengths (MBytes):  RWF=     19 Int=      0 D2E=      0 Chk=      2 Scr=      1
 Normal termination of Gaussian 09 at Fri Mar 20 17:24:14 2026.
