12
 energy: -14.249683750066 gnorm: 0.001980169251 xtb: 6.7.1 (edcfbbe)
C            0.09279992168282       -2.25779775798223        0.53675326110124
C            2.82262966623181        0.03223289205373       -0.20211065664524
C            0.59022298762837       -0.25833757317633       -0.80674530661887
C           -0.57717122835891        0.40554867961084        0.98899164675099
C           -1.67164444079972       -0.14625316508414       -0.99670169921312
C            0.59974917082000        2.10758272179261       -0.43915351836261
H            1.48790558085618        0.85888539706134        0.44933592346371
H            1.74642030790829       -1.37721695777448       -0.14907181312240
H           -2.11484532227064       -1.43062708988185        0.94442388029176
H           -0.74796387121189       -0.98115104695711        0.08912923031025
H           -0.56379322615838        0.99306832919642       -0.56383146012128
H           -1.66430854632900        2.05406657114093        0.14898051216675
