 Entering Gaussian System, Link 0=C:\G09W\g09.exe
 Input=benzene_rdkit.com
 Output=C:\workspace\delta_chem\benchmark_results\benzene\benzene_rdkit.out
 Initial command:
 C:\G09W\l1.exe ".\Gau-14664.inp" "C:\workspace\delta_chem\benchmark_results\benzene\benzene_rdkit.out" /scrdir=".\"
 Entering Link 1 = C:\G09W\l1.exe PID=     13644.
  
 Copyright (c) 1988,1990,1992,1993,1995,1998,2003,2009,2013,
            Gaussian, Inc.  All Rights Reserved.
  
 This is part of the Gaussian(R) 09 program.  It is based on
 the Gaussian(R) 03 system (copyright 2003, Gaussian, Inc.),
 the Gaussian(R) 98 system (copyright 1998, Gaussian, Inc.),
 the Gaussian(R) 94 system (copyright 1995, Gaussian, Inc.),
 the Gaussian 92(TM) system (copyright 1992, Gaussian, Inc.),
 the Gaussian 90(TM) system (copyright 1990, Gaussian, Inc.),
 the Gaussian 88(TM) system (copyright 1988, Gaussian, Inc.),
 the Gaussian 86(TM) system (copyright 1986, Carnegie Mellon
 University), and the Gaussian 82(TM) system (copyright 1983,
 Carnegie Mellon University). Gaussian is a federally registered
 trademark of Gaussian, Inc.
  
 This software contains proprietary and confidential information,
 including trade secrets, belonging to Gaussian, Inc.
  
 This software is provided under written license and may be
 used, copied, transmitted, or stored only in accord with that
 written license.
  
 The following legend is applicable only to US Government
 contracts under FAR:
  
                    RESTRICTED RIGHTS LEGEND
  
 Use, reproduction and disclosure by the US Government is
 subject to restrictions as set forth in subparagraphs (a)
 and (c) of the Commercial Computer Software - Restricted
 Rights clause in FAR 52.227-19.
  
 Gaussian, Inc.
 340 Quinnipiac St., Bldg. 40, Wallingford CT 06492
  
  
 ---------------------------------------------------------------
 Warning -- This program may not be used in any manner that
 competes with the business of Gaussian, Inc. or will provide
 assistance to any competitor of Gaussian, Inc.  The licensee
 of this program is prohibited from giving any competitor of
 Gaussian, Inc. access to this program.  By using this program,
 the user acknowledges that Gaussian, Inc. is engaged in the
 business of creating and licensing software in the field of
 computational chemistry and represents and warrants to the
 licensee that it is not a competitor of Gaussian, Inc. and that
 it will not use this program in any manner prohibited above.
 ---------------------------------------------------------------
  

 Cite this work as:
 Gaussian 09, Revision D.01,
 M. J. Frisch, G. W. Trucks, H. B. Schlegel, G. E. Scuseria, 
 M. A. Robb, J. R. Cheeseman, G. Scalmani, V. Barone, B. Mennucci, 
 G. A. Petersson, H. Nakatsuji, M. Caricato, X. Li, H. P. Hratchian, 
 A. F. Izmaylov, J. Bloino, G. Zheng, J. L. Sonnenberg, M. Hada, 
 M. Ehara, K. Toyota, R. Fukuda, J. Hasegawa, M. Ishida, T. Nakajima, 
 Y. Honda, O. Kitao, H. Nakai, T. Vreven, J. A. Montgomery, Jr., 
 J. E. Peralta, F. Ogliaro, M. Bearpark, J. J. Heyd, E. Brothers, 
 K. N. Kudin, V. N. Staroverov, T. Keith, R. Kobayashi, J. Normand, 
 K. Raghavachari, A. Rendell, J. C. Burant, S. S. Iyengar, J. Tomasi, 
 M. Cossi, N. Rega, J. M. Millam, M. Klene, J. E. Knox, J. B. Cross, 
 V. Bakken, C. Adamo, J. Jaramillo, R. Gomperts, R. E. Stratmann, 
 O. Yazyev, A. J. Austin, R. Cammi, C. Pomelli, J. W. Ochterski, 
 R. L. Martin, K. Morokuma, V. G. Zakrzewski, G. A. Voth, 
 P. Salvador, J. J. Dannenberg, S. Dapprich, A. D. Daniels, 
 O. Farkas, J. B. Foresman, J. V. Ortiz, J. Cioslowski, 
 and D. J. Fox, Gaussian, Inc., Wallingford CT, 2013.
 
 ******************************************
 Gaussian 09:  EM64W-G09RevD.01 13-Apr-2013
                19-Mar-2026 
 ******************************************
 %NProcShared=4
 Will use up to    4 processors via shared memory.
 %Mem=4GB
 %Chk=benzene_rdkit.chk
 ---------------------
 #p opt B3LYP/6-31G(d)
 ---------------------
 1/14=-1,18=20,19=15,26=3,38=1/1,3;
 2/9=110,12=2,17=6,18=5,40=1/2;
 3/5=1,6=6,7=1,11=2,16=1,25=1,30=1,71=1,74=-5/1,2,3;
 4//1;
 5/5=2,38=5/2;
 6/7=2,8=2,9=2,10=2,28=1/1;
 7//1,2,3,16;
 1/14=-1,18=20,19=15,26=3/3(2);
 2/9=110/2;
 99//99;
 2/9=110/2;
 3/5=1,6=6,7=1,11=2,16=1,25=1,30=1,71=1,74=-5/1,2,3;
 4/5=5,16=3,69=1/1;
 5/5=2,38=5/2;
 7//1,2,3,16;
 1/14=-1,18=20,19=15,26=3/3(-5);
 2/9=110/2;
 6/7=2,8=2,9=2,10=2,19=2,28=1/1;
 99/9=1/99;
 Leave Link    1 at Thu Mar 19 17:08:46 2026, MaxMem=   536870912 cpu:         1.0
 (Enter C:\G09W\l101.exe)
 ---------------
 benzene [rdkit]
 ---------------
 Symbolic Z-matrix:
 Charge =  0 Multiplicity = 1
 C                    -1.2167   -0.68201   0.00553 
 C                    -0.0177   -1.39458   0.0193 
 C                     1.199    -0.71257   0.01377 
 C                     1.2167    0.68201  -0.00552 
 C                     0.0177    1.39458  -0.0193 
 C                    -1.199     0.71257  -0.01377 
 H                    -2.16466  -1.21338   0.00982 
 H                    -0.0315   -2.48112   0.03433 
 H                     2.13316  -1.26774   0.0245 
 H                     2.16466   1.21338  -0.00983 
 H                     0.0315    2.48112  -0.03433 
 H                    -2.13316   1.26774  -0.0245 
 
 NAtoms=     12 NQM=       12 NQMF=       0 NMMI=      0 NMMIF=      0
                NMic=       0 NMicF=      0.
                    Isotopes and Nuclear Properties:
 (Nuclear quadrupole moments (NQMom) in fm**2, nuclear magnetic moments (NMagM)
  in nuclear magnetons)

  Atom         1           2           3           4           5           6           7           8           9          10
 IAtWgt=          12          12          12          12          12          12           1           1           1           1
 AtmWgt=  12.0000000  12.0000000  12.0000000  12.0000000  12.0000000  12.0000000   1.0078250   1.0078250   1.0078250   1.0078250
 NucSpn=           0           0           0           0           0           0           1           1           1           1
 AtZEff=   0.0000000   0.0000000   0.0000000   0.0000000   0.0000000   0.0000000   0.0000000   0.0000000   0.0000000   0.0000000
 NQMom=    0.0000000   0.0000000   0.0000000   0.0000000   0.0000000   0.0000000   0.0000000   0.0000000   0.0000000   0.0000000
 NMagM=    0.0000000   0.0000000   0.0000000   0.0000000   0.0000000   0.0000000   2.7928460   2.7928460   2.7928460   2.7928460
 AtZNuc=   6.0000000   6.0000000   6.0000000   6.0000000   6.0000000   6.0000000   1.0000000   1.0000000   1.0000000   1.0000000

  Atom        11          12
 IAtWgt=           1           1
 AtmWgt=   1.0078250   1.0078250
 NucSpn=           1           1
 AtZEff=   0.0000000   0.0000000
 NQMom=    0.0000000   0.0000000
 NMagM=    2.7928460   2.7928460
 AtZNuc=   1.0000000   1.0000000
 Leave Link  101 at Thu Mar 19 17:08:46 2026, MaxMem=   536870912 cpu:         0.0
 (Enter C:\G09W\l103.exe)

 GradGradGradGradGradGradGradGradGradGradGradGradGradGradGradGradGradGrad
 Berny optimization.
 Initialization pass.
                           ----------------------------
                           !    Initial Parameters    !
                           ! (Angstroms and Degrees)  !
 --------------------------                            --------------------------
 ! Name  Definition              Value          Derivative Info.                !
 --------------------------------------------------------------------------------
 ! R1    R(1,2)                  1.3948         estimate D2E/DX2                !
 ! R2    R(1,6)                  1.3948         estimate D2E/DX2                !
 ! R3    R(1,7)                  1.0867         estimate D2E/DX2                !
 ! R4    R(2,3)                  1.3948         estimate D2E/DX2                !
 ! R5    R(2,8)                  1.0867         estimate D2E/DX2                !
 ! R6    R(3,4)                  1.3948         estimate D2E/DX2                !
 ! R7    R(3,9)                  1.0867         estimate D2E/DX2                !
 ! R8    R(4,5)                  1.3948         estimate D2E/DX2                !
 ! R9    R(4,10)                 1.0867         estimate D2E/DX2                !
 ! R10   R(5,6)                  1.3948         estimate D2E/DX2                !
 ! R11   R(5,11)                 1.0867         estimate D2E/DX2                !
 ! R12   R(6,12)                 1.0867         estimate D2E/DX2                !
 ! A1    A(2,1,6)              120.0            estimate D2E/DX2                !
 ! A2    A(2,1,7)              120.0            estimate D2E/DX2                !
 ! A3    A(6,1,7)              120.0            estimate D2E/DX2                !
 ! A4    A(1,2,3)              120.0            estimate D2E/DX2                !
 ! A5    A(1,2,8)              120.0            estimate D2E/DX2                !
 ! A6    A(3,2,8)              120.0            estimate D2E/DX2                !
 ! A7    A(2,3,4)              120.0            estimate D2E/DX2                !
 ! A8    A(2,3,9)              120.0            estimate D2E/DX2                !
 ! A9    A(4,3,9)              120.0            estimate D2E/DX2                !
 ! A10   A(3,4,5)              120.0            estimate D2E/DX2                !
 ! A11   A(3,4,10)             120.0            estimate D2E/DX2                !
 ! A12   A(5,4,10)             120.0            estimate D2E/DX2                !
 ! A13   A(4,5,6)              120.0            estimate D2E/DX2                !
 ! A14   A(4,5,11)             120.0            estimate D2E/DX2                !
 ! A15   A(6,5,11)             120.0            estimate D2E/DX2                !
 ! A16   A(1,6,5)              120.0            estimate D2E/DX2                !
 ! A17   A(1,6,12)             120.0            estimate D2E/DX2                !
 ! A18   A(5,6,12)             120.0            estimate D2E/DX2                !
 ! D1    D(6,1,2,3)              0.0001         estimate D2E/DX2                !
 ! D2    D(6,1,2,8)           -179.9998         estimate D2E/DX2                !
 ! D3    D(7,1,2,3)            179.9998         estimate D2E/DX2                !
 ! D4    D(7,1,2,8)             -0.0002         estimate D2E/DX2                !
 ! D5    D(2,1,6,5)              0.0            estimate D2E/DX2                !
 ! D6    D(2,1,6,12)           179.9998         estimate D2E/DX2                !
 ! D7    D(7,1,6,5)           -179.9997         estimate D2E/DX2                !
 ! D8    D(7,1,6,12)             0.0001         estimate D2E/DX2                !
 ! D9    D(1,2,3,4)             -0.0001         estimate D2E/DX2                !
 ! D10   D(1,2,3,9)            180.0            estimate D2E/DX2                !
 ! D11   D(8,2,3,4)            179.9998         estimate D2E/DX2                !
 ! D12   D(8,2,3,9)             -0.0001         estimate D2E/DX2                !
 ! D13   D(2,3,4,5)              0.0            estimate D2E/DX2                !
 ! D14   D(2,3,4,10)          -179.9998         estimate D2E/DX2                !
 ! D15   D(9,3,4,5)            180.0            estimate D2E/DX2                !
 ! D16   D(9,3,4,10)             0.0001         estimate D2E/DX2                !
 ! D17   D(3,4,5,6)              0.0            estimate D2E/DX2                !
 ! D18   D(3,4,5,11)          -179.9998         estimate D2E/DX2                !
 ! D19   D(10,4,5,6)           179.9999         estimate D2E/DX2                !
 ! D20   D(10,4,5,11)            0.0001         estimate D2E/DX2                !
 ! D21   D(4,5,6,1)              0.0            estimate D2E/DX2                !
 ! D22   D(4,5,6,12)          -179.9999         estimate D2E/DX2                !
 ! D23   D(11,5,6,1)           179.9998         estimate D2E/DX2                !
 ! D24   D(11,5,6,12)            0.0            estimate D2E/DX2                !
 --------------------------------------------------------------------------------
 Trust Radius=3.00D-01 FncErr=1.00D-07 GrdErr=1.00D-06
 Number of steps in this run=     64 maximum allowed number of steps=    100.
 GradGradGradGradGradGradGradGradGradGradGradGradGradGradGradGradGradGrad

 Leave Link  103 at Thu Mar 19 17:08:47 2026, MaxMem=   536870912 cpu:         0.0
 (Enter C:\G09W\l202.exe)
                          Input orientation:                          
 ---------------------------------------------------------------------
 Center     Atomic      Atomic             Coordinates (Angstroms)
 Number     Number       Type             X           Y           Z
 ---------------------------------------------------------------------
      1          6           0       -1.216703   -0.682014    0.005525
      2          6           0       -0.017704   -1.394580    0.019296
      3          6           0        1.198999   -0.712566    0.013774
      4          6           0        1.216703    0.682014   -0.005522
      5          6           0        0.017704    1.394580   -0.019295
      6          6           0       -1.198999    0.712566   -0.013771
      7          1           0       -2.164655   -1.213381    0.009824
      8          1           0       -0.031498   -2.481118    0.034327
      9          1           0        2.133158   -1.267737    0.024504
     10          1           0        2.164655    1.213381   -0.009827
     11          1           0        0.031497    2.481118   -0.034332
     12          1           0       -2.133158    1.267737   -0.024504
 ---------------------------------------------------------------------
                    Distance matrix (angstroms):
                    1          2          3          4          5
     1  C    0.000000
     2  C    1.394826   0.000000
     3  C    2.415909   1.394826   0.000000
     4  C    2.789652   2.415910   1.394826   0.000000
     5  C    2.415910   2.789652   2.415909   1.394826   0.000000
     6  C    1.394826   2.415909   2.789651   2.415909   1.394826
     7  H    1.086730   2.154605   3.400735   3.876382   3.400735
     8  H    2.154603   1.086730   2.154605   3.400735   3.876381
     9  H    3.400735   2.154605   1.086730   2.154604   3.400735
    10  H    3.876382   3.400735   2.154604   1.086730   2.154605
    11  H    3.400735   3.876381   3.400734   2.154604   1.086730
    12  H    2.154604   3.400735   3.876382   3.400735   2.154605
                    6          7          8          9         10
     6  C    0.000000
     7  H    2.154604   0.000000
     8  H    3.400734   2.481555   0.000000
     9  H    3.876382   4.298182   2.481557   0.000000
    10  H    3.400735   4.963112   4.298181   2.481555   0.000000
    11  H    2.154604   4.298181   4.963111   4.298180   2.481556
    12  H    1.086730   2.481555   4.298180   4.963112   4.298182
                   11         12
    11  H    0.000000
    12  H    2.481556   0.000000
 This structure is nearly, but not quite of a higher symmetry.
 Consider Symm=Loose if the higher symmetry is desired.
 Stoichiometry    C6H6
 Framework group  C1[X(C6H6)]
 Deg. of freedom    30
 Full point group                 C1      NOp   1
 Largest Abelian subgroup         C1      NOp   1
 Largest concise Abelian subgroup C1      NOp   1
                         Standard orientation:                         
 ---------------------------------------------------------------------
 Center     Atomic      Atomic             Coordinates (Angstroms)
 Number     Number       Type             X           Y           Z
 ---------------------------------------------------------------------
      1          6           0        1.394385    0.034643    0.005522
      2          6           0        0.727127   -1.190149    0.019296
      3          6           0       -0.667258   -1.224792    0.013772
      4          6           0       -1.394385   -0.034643   -0.005523
      5          6           0       -0.727127    1.190149   -0.019296
      6          6           0        0.667258    1.224792   -0.013773
      7          1           0        2.480771    0.061635    0.009829
      8          1           0        1.293642   -2.117411    0.034332
      9          1           0       -1.187130   -2.179046    0.024503
     10          1           0       -2.480771   -0.061635   -0.009825
     11          1           0       -1.293642    2.117411   -0.034326
     12          1           0        1.187130    2.179046   -0.024501
 ---------------------------------------------------------------------
 Rotational constants (GHZ):      5.7003010      5.7002971      2.8501495
 Leave Link  202 at Thu Mar 19 17:08:47 2026, MaxMem=   536870912 cpu:         0.0
 (Enter C:\G09W\l301.exe)
 Standard basis: 6-31G(d) (6D, 7F)
 Ernie: Thresh=  0.10000D-02 Tol=  0.10000D-05 Strict=F.
 There are   102 symmetry adapted cartesian basis functions of A   symmetry.
 There are   102 symmetry adapted basis functions of A   symmetry.
   102 basis functions,   192 primitive gaussians,   102 cartesian basis functions
    21 alpha electrons       21 beta electrons
       nuclear repulsion energy       203.4161076644 Hartrees.
 IExCor=  402 DFT=T Ex+Corr=B3LYP ExCW=0 ScaHFX=  0.200000
 ScaDFX=  0.800000  0.720000  1.000000  0.810000 ScalE2=  1.000000  1.000000
 IRadAn=      0 IRanWt=     -1 IRanGd=            0 ICorTp=0 IEmpDi=  4
 NAtoms=   12 NActive=   12 NUniq=   12 SFac= 1.00D+00 NAtFMM=   60 NAOKFM=F Big=F
 Integral buffers will be    131072 words long.
 Raffenetti 2 integral format.
 Two-electron integral symmetry is turned on.
 Leave Link  301 at Thu Mar 19 17:08:47 2026, MaxMem=   536870912 cpu:         0.0
 (Enter C:\G09W\l302.exe)
 NPDir=0 NMtPBC=     1 NCelOv=     1 NCel=       1 NClECP=     1 NCelD=      1
         NCelK=      1 NCelE2=     1 NClLst=     1 CellRange=     0.0.
 One-electron integrals computed using PRISM.
 NBasis=   102 RedAO= T EigKep=  5.15D-04  NBF=   102
 NBsUse=   102 1.00D-06 EigRej= -1.00D+00 NBFU=   102
 Precomputing XC quadrature grid using
 IXCGrd= 4 IRadAn=           0 IRanWt=          -1 IRanGd=           0 AccXCQ= 0.00D+00.
 Generated NRdTot=       0 NPtTot=           0 NUsed=           0 NTot=          32
 NSgBfM=   102   102   102   102   102 MxSgAt=    12 MxSgA2=    12.
 Leave Link  302 at Thu Mar 19 17:08:47 2026, MaxMem=   536870912 cpu:         0.0
 (Enter C:\G09W\l303.exe)
 DipDrv:  MaxL=1.
 Leave Link  303 at Thu Mar 19 17:08:48 2026, MaxMem=   536870912 cpu:         0.0
 (Enter C:\G09W\l401.exe)
 ExpMin= 1.61D-01 ExpMax= 3.05D+03 ExpMxC= 4.57D+02 IAcc=1 IRadAn=         1 AccDes= 0.00D+00
 Harris functional with IExCor=  402 and IRadAn=       1 diagonalized for initial guess.
 HarFok:  IExCor=  402 AccDes= 0.00D+00 IRadAn=         1 IDoV= 1 UseB2=F ITyADJ=14
 ICtDFT=  3500011 ScaDFX=  1.000000  1.000000  1.000000  1.000000
 FoFCou: FMM=F IPFlag=           0 FMFlag=      100000 FMFlg1=           0
         NFxFlg=           0 DoJE=T BraDBF=F KetDBF=T FulRan=T
         wScrn=  0.000000 ICntrl=     500 IOpCl=  0 I1Cent=   200000004 NGrid=           0
         NMat0=    1 NMatS0=      1 NMatT0=    0 NMatD0=    1 NMtDS0=    0 NMtDT0=    0
 Petite list used in FoFCou.
 Harris En= -232.279623187734    
 JPrj=0 DoOrth=F DoCkMO=F.
 Leave Link  401 at Thu Mar 19 17:08:48 2026, MaxMem=   536870912 cpu:         0.0
 (Enter C:\G09W\l502.exe)
 Closed shell SCF:
 Using DIIS extrapolation, IDIIS=  1040.
 Integral symmetry usage will be decided dynamically.
 Keep R1 ints in memory in canonical form, NReq=14774045.
 IVT=       51148 IEndB=       51148 NGot=   536870912 MDV=   523020134
 LenX=   523020134 LenY=   523009289
 Requested convergence on RMS density matrix=1.00D-08 within 128 cycles.
 Requested convergence on MAX density matrix=1.00D-06.
 Requested convergence on             energy=1.00D-06.
 No special actions if energy rises.
 FoFCou: FMM=F IPFlag=           0 FMFlag=           0 FMFlg1=           0
         NFxFlg=           0 DoJE=F BraDBF=F KetDBF=F FulRan=T
         wScrn=  0.000000 ICntrl=     600 IOpCl=  0 I1Cent=           0 NGrid=           0
         NMat0=    1 NMatS0=   5253 NMatT0=    0 NMatD0=    1 NMtDS0=    0 NMtDT0=    0
 Symmetry not used in FoFCou.
 Integral accuracy reduced to 1.0D-05 until final iterations.

 Cycle   1  Pass 0  IDiag  1:
 E= -232.092722147120    
 DIIS: error= 4.50D-02 at cycle   1 NSaved=   1.
 NSaved= 1 IEnMin= 1 EnMin= -232.092722147120     IErMin= 1 ErrMin= 4.50D-02
 ErrMax= 4.50D-02  0.00D+00 EMaxC= 1.00D-01 BMatC= 1.36D-01 BMatP= 1.36D-01
 IDIUse=3 WtCom= 5.50D-01 WtEn= 4.50D-01
 Coeff-Com:  0.100D+01
 Coeff-En:   0.100D+01
 Coeff:      0.100D+01
 Gap=     0.250 Goal=   None    Shift=    0.000
 DSYEVD-2 returned Info=        8033 IAlg= 4 N=   102 NDim=   102 NE2=     5127541 trying  DSYEV.
 GapD=    0.250 DampG=1.000 DampE=0.500 DampFc=0.5000 IDamp=-1.
 Damping current iteration by 5.00D-01
 RMSDP=8.42D-03 MaxDP=1.14D-01              OVMax= 1.58D-01

 Cycle   2  Pass 0  IDiag  1:
 E= -232.166770940521     Delta-E=       -0.074048793400 Rises=F Damp=T
 DIIS: error= 7.82D-03 at cycle   2 NSaved=   2.
 NSaved= 2 IEnMin= 2 EnMin= -232.166770940521     IErMin= 2 ErrMin= 7.82D-03
 ErrMax= 7.82D-03  0.00D+00 EMaxC= 1.00D-01 BMatC= 6.55D-03 BMatP= 1.36D-01
 IDIUse=3 WtCom= 9.22D-01 WtEn= 7.82D-02
 Coeff-Com:  0.732D-02 0.993D+00
 Coeff-En:   0.672D-02 0.993D+00
 Coeff:      0.727D-02 0.993D+00
 Gap=     0.254 Goal=   None    Shift=    0.000
 RMSDP=1.77D-03 MaxDP=1.83D-02 DE=-7.40D-02 OVMax= 9.18D-02

 Cycle   3  Pass 0  IDiag  1:
 E= -232.247734861621     Delta-E=       -0.080963921101 Rises=F Damp=F
 DIIS: error= 4.47D-03 at cycle   3 NSaved=   3.
 NSaved= 3 IEnMin= 3 EnMin= -232.247734861621     IErMin= 3 ErrMin= 4.47D-03
 ErrMax= 4.47D-03  0.00D+00 EMaxC= 1.00D-01 BMatC= 1.01D-03 BMatP= 6.55D-03
 IDIUse=3 WtCom= 9.55D-01 WtEn= 4.47D-02
 Coeff-Com: -0.383D-01 0.239D+00 0.799D+00
 Coeff-En:   0.000D+00 0.000D+00 0.100D+01
 Coeff:     -0.366D-01 0.229D+00 0.808D+00
 Gap=     0.250 Goal=   None    Shift=    0.000
 RMSDP=4.37D-04 MaxDP=3.59D-03 DE=-8.10D-02 OVMax= 7.76D-03

 Cycle   4  Pass 0  IDiag  1:
 E= -232.248639602299     Delta-E=       -0.000904740677 Rises=F Damp=F
 DIIS: error= 6.39D-04 at cycle   4 NSaved=   4.
 NSaved= 4 IEnMin= 4 EnMin= -232.248639602299     IErMin= 4 ErrMin= 6.39D-04
 ErrMax= 6.39D-04  0.00D+00 EMaxC= 1.00D-01 BMatC= 3.01D-05 BMatP= 1.01D-03
 IDIUse=3 WtCom= 9.94D-01 WtEn= 6.39D-03
 Coeff-Com: -0.857D-02 0.175D-01 0.182D+00 0.809D+00
 Coeff-En:   0.000D+00 0.000D+00 0.000D+00 0.100D+01
 Coeff:     -0.851D-02 0.174D-01 0.181D+00 0.810D+00
 Gap=     0.251 Goal=   None    Shift=    0.000
 RMSDP=5.63D-05 MaxDP=4.33D-04 DE=-9.05D-04 OVMax= 9.85D-04

 Cycle   5  Pass 0  IDiag  1:
 E= -232.248666761967     Delta-E=       -0.000027159669 Rises=F Damp=F
 DIIS: error= 2.13D-05 at cycle   5 NSaved=   5.
 NSaved= 5 IEnMin= 5 EnMin= -232.248666761967     IErMin= 5 ErrMin= 2.13D-05
 ErrMax= 2.13D-05  0.00D+00 EMaxC= 1.00D-01 BMatC= 2.66D-08 BMatP= 3.01D-05
 IDIUse=1 WtCom= 1.00D+00 WtEn= 0.00D+00
 Coeff-Com: -0.303D-03-0.324D-03 0.658D-02 0.518D-01 0.942D+00
 Coeff:     -0.303D-03-0.324D-03 0.658D-02 0.518D-01 0.942D+00
 Gap=     0.251 Goal=   None    Shift=    0.000
 RMSDP=2.98D-06 MaxDP=2.54D-05 DE=-2.72D-05 OVMax= 4.01D-05

 Initial convergence to 1.0D-05 achieved.  Increase integral accuracy.
 Cycle   6  Pass 1  IDiag  1:
 E= -232.248639328997     Delta-E=        0.000027432970 Rises=F Damp=F
 DIIS: error= 5.96D-05 at cycle   1 NSaved=   1.
 NSaved= 1 IEnMin= 1 EnMin= -232.248639328997     IErMin= 1 ErrMin= 5.96D-05
 ErrMax= 5.96D-05  0.00D+00 EMaxC= 1.00D-01 BMatC= 4.29D-08 BMatP= 4.29D-08
 IDIUse=1 WtCom= 1.00D+00 WtEn= 0.00D+00
 Coeff-Com:  0.100D+01
 Coeff:      0.100D+01
 Gap=     0.251 Goal=   None    Shift=    0.000
 RMSDP=2.98D-06 MaxDP=2.54D-05 DE= 2.74D-05 OVMax= 1.14D-04

 Cycle   7  Pass 1  IDiag  1:
 E= -232.248639390610     Delta-E=       -0.000000061612 Rises=F Damp=F
 DIIS: error= 2.78D-06 at cycle   2 NSaved=   2.
 NSaved= 2 IEnMin= 2 EnMin= -232.248639390610     IErMin= 2 ErrMin= 2.78D-06
 ErrMax= 2.78D-06  0.00D+00 EMaxC= 1.00D-01 BMatC= 4.81D-10 BMatP= 4.29D-08
 IDIUse=1 WtCom= 1.00D+00 WtEn= 0.00D+00
 Coeff-Com: -0.208D-01 0.102D+01
 Coeff:     -0.208D-01 0.102D+01
 Gap=     0.251 Goal=   None    Shift=    0.000
 RMSDP=5.31D-07 MaxDP=5.03D-06 DE=-6.16D-08 OVMax= 8.88D-06

 Cycle   8  Pass 1  IDiag  1:
 E= -232.248639390911     Delta-E=       -0.000000000301 Rises=F Damp=F
 DIIS: error= 1.66D-06 at cycle   3 NSaved=   3.
 NSaved= 3 IEnMin= 3 EnMin= -232.248639390911     IErMin= 3 ErrMin= 1.66D-06
 ErrMax= 1.66D-06  0.00D+00 EMaxC= 1.00D-01 BMatC= 2.37D-10 BMatP= 4.81D-10
 IDIUse=1 WtCom= 1.00D+00 WtEn= 0.00D+00
 Coeff-Com: -0.157D-01 0.419D+00 0.597D+00
 Coeff:     -0.157D-01 0.419D+00 0.597D+00
 Gap=     0.251 Goal=   None    Shift=    0.000
 RMSDP=1.75D-07 MaxDP=2.51D-06 DE=-3.01D-10 OVMax= 5.31D-06

 Cycle   9  Pass 1  IDiag  1:
 E= -232.248639391096     Delta-E=       -0.000000000186 Rises=F Damp=F
 DIIS: error= 6.14D-07 at cycle   4 NSaved=   4.
 NSaved= 4 IEnMin= 4 EnMin= -232.248639391096     IErMin= 4 ErrMin= 6.14D-07
 ErrMax= 6.14D-07  0.00D+00 EMaxC= 1.00D-01 BMatC= 3.05D-11 BMatP= 2.37D-10
 IDIUse=1 WtCom= 1.00D+00 WtEn= 0.00D+00
 Coeff-Com: -0.614D-02 0.131D+00 0.307D+00 0.569D+00
 Coeff:     -0.614D-02 0.131D+00 0.307D+00 0.569D+00
 Gap=     0.251 Goal=   None    Shift=    0.000
 RMSDP=5.85D-08 MaxDP=8.83D-07 DE=-1.86D-10 OVMax= 2.13D-06

 Cycle  10  Pass 1  IDiag  1:
 E= -232.248639391130     Delta-E=       -0.000000000034 Rises=F Damp=F
 DIIS: error= 9.34D-08 at cycle   5 NSaved=   5.
 NSaved= 5 IEnMin= 5 EnMin= -232.248639391130     IErMin= 5 ErrMin= 9.34D-08
 ErrMax= 9.34D-08  0.00D+00 EMaxC= 1.00D-01 BMatC= 7.51D-13 BMatP= 3.05D-11
 IDIUse=1 WtCom= 1.00D+00 WtEn= 0.00D+00
 Coeff-Com: -0.142D-02 0.243D-01 0.706D-01 0.199D+00 0.707D+00
 Coeff:     -0.142D-02 0.243D-01 0.706D-01 0.199D+00 0.707D+00
 Gap=     0.251 Goal=   None    Shift=    0.000
 RMSDP=1.03D-08 MaxDP=1.88D-07 DE=-3.40D-11 OVMax= 2.88D-07

 Cycle  11  Pass 1  IDiag  1:
 E= -232.248639391128     Delta-E=        0.000000000002 Rises=F Damp=F
 DIIS: error= 3.01D-08 at cycle   6 NSaved=   6.
 NSaved= 6 IEnMin= 5 EnMin= -232.248639391130     IErMin= 6 ErrMin= 3.01D-08
 ErrMax= 3.01D-08  0.00D+00 EMaxC= 1.00D-01 BMatC= 9.72D-14 BMatP= 7.51D-13
 IDIUse=1 WtCom= 1.00D+00 WtEn= 0.00D+00
 Coeff-Com: -0.196D-03 0.161D-02 0.104D-01 0.541D-01 0.339D+00 0.595D+00
 Coeff:     -0.196D-03 0.161D-02 0.104D-01 0.541D-01 0.339D+00 0.595D+00
 Gap=     0.251 Goal=   None    Shift=    0.000
 RMSDP=3.82D-09 MaxDP=5.87D-08 DE= 2.10D-12 OVMax= 7.77D-08

 SCF Done:  E(RB3LYP) =  -232.248639391     A.U. after   11 cycles
            NFock= 11  Conv=0.38D-08     -V/T= 2.0100
 KE= 2.299551206421D+02 PE=-9.441935727780D+02 EE= 2.785737050804D+02
 Leave Link  502 at Thu Mar 19 17:08:55 2026, MaxMem=   536870912 cpu:         7.0
 (Enter C:\G09W\l601.exe)
 Copying SCF densities to generalized density rwf, IOpCl= 0 IROHF=0.

 **********************************************************************

            Population analysis using the SCF density.

 **********************************************************************

 Orbital symmetries:
       Occupied  (A) (A) (A) (A) (A) (A) (A) (A) (A) (A) (A) (A)
                 (A) (A) (A) (A) (A) (A) (A) (A) (A)
       Virtual   (A) (A) (A) (A) (A) (A) (A) (A) (A) (A) (A) (A)
                 (A) (A) (A) (A) (A) (A) (A) (A) (A) (A) (A) (A)
                 (A) (A) (A) (A) (A) (A) (A) (A) (A) (A) (A) (A)
                 (A) (A) (A) (A) (A) (A) (A) (A) (A) (A) (A) (A)
                 (A) (A) (A) (A) (A) (A) (A) (A) (A) (A) (A) (A)
                 (A) (A) (A) (A) (A) (A) (A) (A) (A) (A) (A) (A)
                 (A) (A) (A) (A) (A) (A) (A) (A) (A)
 The electronic state is 1-A.
 Alpha  occ. eigenvalues --  -10.18724 -10.18698 -10.18697 -10.18642 -10.18642
 Alpha  occ. eigenvalues --  -10.18615  -0.84719  -0.74026  -0.74026  -0.59769
 Alpha  occ. eigenvalues --   -0.59768  -0.51901  -0.45894  -0.43858  -0.41740
 Alpha  occ. eigenvalues --   -0.41740  -0.35998  -0.34020  -0.34020  -0.24652
 Alpha  occ. eigenvalues --   -0.24651
 Alpha virt. eigenvalues --    0.00401   0.00401   0.09072   0.14473   0.14473
 Alpha virt. eigenvalues --    0.16487   0.18226   0.18227   0.19071   0.30337
 Alpha virt. eigenvalues --    0.30337   0.32012   0.32012   0.47440   0.52718
 Alpha virt. eigenvalues --    0.55081   0.55107   0.56566   0.59253   0.60181
 Alpha virt. eigenvalues --    0.60184   0.60296   0.60297   0.62708   0.62709
 Alpha virt. eigenvalues --    0.66770   0.66771   0.74521   0.84008   0.84009
 Alpha virt. eigenvalues --    0.84198   0.86466   0.86466   0.93982   0.93983
 Alpha virt. eigenvalues --    0.94075   0.95943   1.08322   1.08323   1.14353
 Alpha virt. eigenvalues --    1.14356   1.20243   1.26189   1.39555   1.43731
 Alpha virt. eigenvalues --    1.43733   1.48760   1.48760   1.51564   1.51564
 Alpha virt. eigenvalues --    1.75707   1.79145   1.85800   1.89763   1.97458
 Alpha virt. eigenvalues --    1.97458   2.06889   2.06889   2.15299   2.15299
 Alpha virt. eigenvalues --    2.15702   2.15703   2.31129   2.31129   2.32407
 Alpha virt. eigenvalues --    2.54682   2.54682   2.66046   2.70914   2.70914
 Alpha virt. eigenvalues --    2.72401   2.72402   2.76103   3.01919   3.41568
 Alpha virt. eigenvalues --    4.08732   4.11830   4.11830   4.33081   4.33082
 Alpha virt. eigenvalues --    4.66754
          Condensed to atoms (all electrons):
               1          2          3          4          5          6
     1  C    4.847674   0.552252  -0.031941  -0.041272  -0.031944   0.552234
     2  C    0.552252   4.847691   0.552223  -0.031944  -0.041276  -0.031939
     3  C   -0.031941   0.552223   4.847643   0.552234  -0.031939  -0.041278
     4  C   -0.041272  -0.031944   0.552234   4.847675   0.552252  -0.031941
     5  C   -0.031944  -0.041276  -0.031939   0.552252   4.847691   0.552223
     6  C    0.552234  -0.031939  -0.041278  -0.031941   0.552223   4.847643
     7  H    0.358934  -0.043914   0.004825   0.000588   0.004825  -0.043916
     8  H   -0.043911   0.358940  -0.043914   0.004825   0.000588   0.004825
     9  H    0.004825  -0.043918   0.358931  -0.043917   0.004825   0.000588
    10  H    0.000588   0.004825  -0.043916   0.358934  -0.043914   0.004825
    11  H    0.004825   0.000588   0.004825  -0.043911   0.358940  -0.043914
    12  H   -0.043917   0.004825   0.000588   0.004825  -0.043918   0.358931
               7          8          9         10         11         12
     1  C    0.358934  -0.043911   0.004825   0.000588   0.004825  -0.043917
     2  C   -0.043914   0.358940  -0.043918   0.004825   0.000588   0.004825
     3  C    0.004825  -0.043914   0.358931  -0.043916   0.004825   0.000588
     4  C    0.000588   0.004825  -0.043917   0.358934  -0.043911   0.004825
     5  C    0.004825   0.000588   0.004825  -0.043914   0.358940  -0.043918
     6  C   -0.043916   0.004825   0.000588   0.004825  -0.043914   0.358931
     7  H    0.602557  -0.005941  -0.000184   0.000016  -0.000184  -0.005939
     8  H   -0.005941   0.602551  -0.005940  -0.000184   0.000016  -0.000184
     9  H   -0.000184  -0.005940   0.602579  -0.005939  -0.000184   0.000016
    10  H    0.000016  -0.000184  -0.005939   0.602557  -0.005941  -0.000184
    11  H   -0.000184   0.000016  -0.000184  -0.005941   0.602551  -0.005940
    12  H   -0.005939  -0.000184   0.000016  -0.000184  -0.005940   0.602580
 Mulliken charges:
               1
     1  C   -0.128348
     2  C   -0.128352
     3  C   -0.128281
     4  C   -0.128348
     5  C   -0.128352
     6  C   -0.128281
     7  H    0.128333
     8  H    0.128329
     9  H    0.128319
    10  H    0.128333
    11  H    0.128329
    12  H    0.128319
 Sum of Mulliken charges =   0.00000
 Mulliken charges with hydrogens summed into heavy atoms:
               1
     1  C   -0.000015
     2  C   -0.000023
     3  C    0.000038
     4  C   -0.000015
     5  C   -0.000023
     6  C    0.000038
 Electronic spatial extent (au):  <R**2>=            457.4511
 Charge=              0.0000 electrons
 Dipole moment (field-independent basis, Debye):
    X=              0.0000    Y=              0.0000    Z=              0.0000  Tot=              0.0000
 Quadrupole moment (field-independent basis, Debye-Ang):
   XX=            -31.4131   YY=            -31.4142   ZZ=            -38.5743
   XY=              0.0003   XZ=              0.0308   YZ=             -0.0973
 Traceless Quadrupole moment (field-independent basis, Debye-Ang):
   XX=              2.3874   YY=              2.3864   ZZ=             -4.7738
   XY=              0.0003   XZ=              0.0308   YZ=             -0.0973
 Octapole moment (field-independent basis, Debye-Ang**2):
  XXX=              0.0000  YYY=              0.0000  ZZZ=              0.0000  XYY=              0.0000
  XXY=              0.0000  XXZ=              0.0000  XZZ=              0.0000  YZZ=              0.0000
  YYZ=              0.0000  XYZ=              0.0000
 Hexadecapole moment (field-independent basis, Debye-Ang**3):
 XXXX=           -269.6889 YYYY=           -269.6595 ZZZZ=            -40.0616 XXXY=             -0.0055
 XXXZ=             -0.3824 YYYX=             -0.0063 YYYZ=              1.2090 ZZZX=             -0.6046
 ZZZY=              1.9111 XXYY=            -89.8913 XXZZ=            -60.2388 YYZZ=            -60.2248
 XXYZ=              0.4030 YYXZ=             -0.1275 ZZXY=             -0.0048
 N-N= 2.034161076644D+02 E-N=-9.441935679284D+02  KE= 2.299551206421D+02
 No NMR shielding tensors so no spin-rotation constants.
 Leave Link  601 at Thu Mar 19 17:08:55 2026, MaxMem=   536870912 cpu:         0.0
 (Enter C:\G09W\l701.exe)
 Compute integral first derivatives.
 ... and contract with generalized density number  0.
 Leave Link  701 at Thu Mar 19 17:08:55 2026, MaxMem=   536870912 cpu:         0.0
 (Enter C:\G09W\l702.exe)
 L702 exits ... SP integral derivatives will be done elsewhere.
 Leave Link  702 at Thu Mar 19 17:08:55 2026, MaxMem=   536870912 cpu:         0.0
 (Enter C:\G09W\l703.exe)
 Compute integral first derivatives, UseDBF=F ICtDFT=           0.
 Integral derivatives from FoFJK, PRISM(SPDF).
 Calling FoFJK, ICntrl=      2127 FMM=F ISym2X=0 I1Cent= 0 IOpClX= 0 NMat=1 NMatS=1 NMatT=0.
 FoFJK:  IHMeth= 1 ICntrl=    2127 DoSepK=F KAlg= 0 I1Cent=   0 FoldK=F
 IRaf=         0 NMat=   1 IRICut=       1 DoRegI=T DoRafI=F ISym2E= 0.
 FoFCou: FMM=F IPFlag=           0 FMFlag=      100000 FMFlg1=         800
         NFxFlg=           0 DoJE=F BraDBF=F KetDBF=F FulRan=T
         wScrn=  0.000000 ICntrl=    2127 IOpCl=  0 I1Cent=           0 NGrid=           0
         NMat0=    1 NMatS0=      1 NMatT0=    0 NMatD0=    1 NMtDS0=    0 NMtDT0=    0
 Symmetry not used in FoFCou.
 Leave Link  703 at Thu Mar 19 17:08:57 2026, MaxMem=   536870912 cpu:         1.0
 (Enter C:\G09W\l716.exe)
 Dipole        = 3.71496600D-07 2.44434775D-08 3.14155866D-06
 ***** Axes restored to original set *****
 -------------------------------------------------------------------
 Center     Atomic                   Forces (Hartrees/Bohr)
 Number     Number              X              Y              Z
 -------------------------------------------------------------------
      1        6          -0.001340427   -0.000749766    0.000006921
      2        6          -0.000002274   -0.001530947    0.000025720
      3        6           0.001285080   -0.000762317    0.000021580
      4        6           0.001340446    0.000749845   -0.000007331
      5        6           0.000002140    0.001530983   -0.000025640
      6        6          -0.001285099    0.000762265   -0.000021730
      7        1          -0.000202946   -0.000112295    0.000001230
      8        1          -0.000003030   -0.000233350    0.000002950
      9        1           0.000201314   -0.000115715    0.000001533
     10        1           0.000202944    0.000112282   -0.000000995
     11        1           0.000003147    0.000233307   -0.000002782
     12        1          -0.000201294    0.000115709   -0.000001455
 -------------------------------------------------------------------
 Cartesian Forces:  Max     0.001530983 RMS     0.000627992
 Leave Link  716 at Thu Mar 19 17:08:58 2026, MaxMem=   536870912 cpu:         0.0
 (Enter C:\G09W\l103.exe)

 GradGradGradGradGradGradGradGradGradGradGradGradGradGradGradGradGradGrad
 Berny optimization.
 FormGI is forming the generalized inverse of G from B-inverse, IUseBI=4.
 Internal  Forces:  Max     0.001754873 RMS     0.000589449
 Search for a local minimum.
 Step number   1 out of a maximum of   64
 All quantities printed in internal units (Hartrees-Bohrs-Radians)
 RMS Force = .58945D-03 SwitMx=.10000D-02 MixMth= 2
 Mixed Optimization -- En-DIIS/RFO-DIIS
 Second derivative matrix not updated -- first step.
 ITU=  0
     Eigenvalues ---    0.02157   0.02157   0.02157   0.02157   0.02157
     Eigenvalues ---    0.02157   0.02157   0.02157   0.02157   0.16000
     Eigenvalues ---    0.16000   0.16000   0.16000   0.16000   0.16000
     Eigenvalues ---    0.22000   0.22000   0.22000   0.35193   0.35193
     Eigenvalues ---    0.35193   0.35193   0.35193   0.35193   0.42141
     Eigenvalues ---    0.42141   0.46489   0.46489   0.46489   0.46489
 RFO step:  Lambda=-4.05876721D-05 EMin= 2.15719804D-02
 Linear search not attempted -- first point.
 Iteration  1 RMS(Cart)=  0.00193964 RMS(Int)=  0.00000004
 Iteration  2 RMS(Cart)=  0.00000005 RMS(Int)=  0.00000000
 ITry= 1 IFail=0 DXMaxC= 4.48D-03 DCOld= 1.00D+10 DXMaxT= 3.00D-01 DXLimC= 3.00D+00 Rises=F
 Variable       Old X    -DE/DX   Delta X   Delta X   Delta X     New X
                                 (Linear)    (Quad)   (Total)
    R1        2.63584   0.00175   0.00000   0.00377   0.00377   2.63961
    R2        2.63584   0.00175   0.00000   0.00377   0.00377   2.63961
    R3        2.05362   0.00023   0.00000   0.00066   0.00066   2.05428
    R4        2.63584   0.00175   0.00000   0.00377   0.00377   2.63961
    R5        2.05362   0.00023   0.00000   0.00066   0.00066   2.05428
    R6        2.63584   0.00175   0.00000   0.00377   0.00377   2.63961
    R7        2.05362   0.00023   0.00000   0.00066   0.00066   2.05428
    R8        2.63584   0.00175   0.00000   0.00377   0.00377   2.63961
    R9        2.05362   0.00023   0.00000   0.00066   0.00066   2.05428
   R10        2.63584   0.00175   0.00000   0.00377   0.00377   2.63961
   R11        2.05362   0.00023   0.00000   0.00066   0.00066   2.05428
   R12        2.05362   0.00023   0.00000   0.00066   0.00066   2.05428
    A1        2.09439  -0.00001   0.00000  -0.00004  -0.00004   2.09436
    A2        2.09440   0.00001   0.00000   0.00005   0.00005   2.09444
    A3        2.09439   0.00000   0.00000  -0.00001  -0.00001   2.09439
    A4        2.09440  -0.00001   0.00000  -0.00004  -0.00004   2.09436
    A5        2.09439   0.00000   0.00000   0.00000   0.00000   2.09440
    A6        2.09440   0.00001   0.00000   0.00004   0.00004   2.09444
    A7        2.09440   0.00002   0.00000   0.00008   0.00008   2.09447
    A8        2.09440  -0.00001   0.00000  -0.00004  -0.00004   2.09436
    A9        2.09439  -0.00001   0.00000  -0.00004  -0.00004   2.09435
   A10        2.09439  -0.00001   0.00000  -0.00004  -0.00004   2.09436
   A11        2.09439   0.00000   0.00000  -0.00001  -0.00001   2.09439
   A12        2.09440   0.00001   0.00000   0.00005   0.00005   2.09444
   A13        2.09440  -0.00001   0.00000  -0.00004  -0.00004   2.09436
   A14        2.09440   0.00000   0.00000   0.00000   0.00000   2.09440
   A15        2.09439   0.00001   0.00000   0.00004   0.00004   2.09443
   A16        2.09440   0.00002   0.00000   0.00008   0.00008   2.09447
   A17        2.09439  -0.00001   0.00000  -0.00004  -0.00004   2.09435
   A18        2.09440  -0.00001   0.00000  -0.00004  -0.00004   2.09436
    D1        0.00000   0.00000   0.00000   0.00001   0.00001   0.00002
    D2       -3.14159   0.00000   0.00000   0.00007   0.00007  -3.14152
    D3        3.14159   0.00000   0.00000   0.00001   0.00001  -3.14159
    D4        0.00000   0.00000   0.00000   0.00007   0.00007   0.00006
    D5        0.00000   0.00000   0.00000  -0.00001  -0.00001  -0.00002
    D6        3.14159   0.00000   0.00000   0.00007   0.00007  -3.14153
    D7       -3.14159   0.00000   0.00000  -0.00001  -0.00001   3.14159
    D8        0.00000   0.00000   0.00000   0.00007   0.00007   0.00008
    D9        0.00000   0.00000   0.00000  -0.00001  -0.00001  -0.00002
   D10        3.14159   0.00000   0.00000   0.00007   0.00007  -3.14153
   D11        3.14159   0.00000   0.00000  -0.00007  -0.00007   3.14152
   D12        0.00000   0.00000   0.00000   0.00001   0.00001   0.00001
   D13        0.00000   0.00000   0.00000   0.00001   0.00001   0.00002
   D14       -3.14159   0.00000   0.00000   0.00000   0.00000  -3.14159
   D15        3.14159   0.00000   0.00000  -0.00006  -0.00006   3.14153
   D16        0.00000   0.00000   0.00000  -0.00008  -0.00008  -0.00008
   D17        0.00000   0.00000   0.00000  -0.00002  -0.00002  -0.00002
   D18       -3.14159   0.00000   0.00000  -0.00008  -0.00008   3.14152
   D19        3.14159   0.00000   0.00000   0.00000   0.00000   3.14159
   D20        0.00000   0.00000   0.00000  -0.00006  -0.00006  -0.00006
   D21        0.00000   0.00000   0.00000   0.00002   0.00002   0.00002
   D22       -3.14159   0.00000   0.00000  -0.00007  -0.00007   3.14153
   D23        3.14159   0.00000   0.00000   0.00008   0.00008  -3.14152
   D24        0.00000   0.00000   0.00000  -0.00001  -0.00001  -0.00001
         Item               Value     Threshold  Converged?
 Maximum Force            0.001755     0.000450     NO 
 RMS     Force            0.000589     0.000300     NO 
 Maximum Displacement     0.004478     0.001800     NO 
 RMS     Displacement     0.001940     0.001200     NO 
 Predicted change in Energy=-2.029384D-05
 Lowest energy point so far.  Saving SCF results.
 GradGradGradGradGradGradGradGradGradGradGradGradGradGradGradGradGradGrad

 Leave Link  103 at Thu Mar 19 17:08:59 2026, MaxMem=   536870912 cpu:         1.0
 (Enter C:\G09W\l202.exe)
                          Input orientation:                          
 ---------------------------------------------------------------------
 Center     Atomic      Atomic             Coordinates (Angstroms)
 Number     Number       Type             X           Y           Z
 ---------------------------------------------------------------------
      1          6           0       -1.218454   -0.683018    0.005533
      2          6           0       -0.017735   -1.396598    0.019348
      3          6           0        1.200676   -0.713555    0.013823
      4          6           0        1.218454    0.683018   -0.005534
      5          6           0        0.017735    1.396598   -0.019348
      6          6           0       -1.200676    0.713555   -0.013824
      7          1           0       -2.166733   -1.214516    0.009837
      8          1           0       -0.031527   -2.483488    0.034345
      9          1           0        2.135140   -1.268898    0.024513
     10          1           0        2.166733    1.214516   -0.009837
     11          1           0        0.031527    2.483488   -0.034344
     12          1           0       -2.135140    1.268898   -0.024512
 ---------------------------------------------------------------------
                    Distance matrix (angstroms):
                    1          2          3          4          5
     1  C    0.000000
     2  C    1.396823   0.000000
     3  C    2.419337   1.396819   0.000000
     4  C    2.793689   2.419419   1.396821   0.000000
     5  C    2.419419   2.793690   2.419339   1.396823   0.000000
     6  C    1.396821   2.419339   2.793547   2.419337   1.396819
     7  H    1.087079   2.156719   3.404471   3.880768   3.404507
     8  H    2.156691   1.087080   2.156712   3.404527   3.880771
     9  H    3.404439   2.156665   1.087079   2.156662   3.404438
    10  H    3.880768   3.404507   2.156683   1.087079   2.156719
    11  H    3.404527   3.880771   3.404455   2.156691   1.087080
    12  H    2.156662   3.404438   3.880626   3.404439   2.156665
                    6          7          8          9         10
     6  C    0.000000
     7  H    2.156683   0.000000
     8  H    3.404455   2.483947   0.000000
     9  H    3.880626   4.302241   2.483902   0.000000
    10  H    3.404471   4.967847   4.302270   2.483852   0.000000
    11  H    2.156712   4.302270   4.967851   4.302215   2.483947
    12  H    1.087079   2.483852   4.302214   4.967706   4.302241
                   11         12
    11  H    0.000000
    12  H    2.483902   0.000000
 Stoichiometry    C6H6
 Framework group  C1[X(C6H6)]
 Deg. of freedom    30
 Full point group                 C1      NOp   1
 RotChk:  IX=2 Diff= 6.56D-01
 Largest Abelian subgroup         C1      NOp   1
 Largest concise Abelian subgroup C1      NOp   1
                         Standard orientation:                         
 ---------------------------------------------------------------------
 Center     Atomic      Atomic             Coordinates (Angstroms)
 Number     Number       Type             X           Y           Z
 ---------------------------------------------------------------------
      1          6           0        1.230682    0.660755   -0.000003
      2          6           0        1.187585   -0.735403   -0.000009
      3          6           0       -0.043095   -1.396108   -0.000016
      4          6           0       -1.230682   -0.660755    0.000003
      5          6           0       -1.187585    0.735403    0.000009
      6          6           0        0.043095    1.396108    0.000016
      7          1           0        2.188418    1.175034   -0.000004
      8          1           0        2.111806   -1.307732    0.000044
      9          1           0       -0.076639   -2.482670    0.000041
     10          1           0       -2.188418   -1.175034    0.000003
     11          1           0       -2.111806    1.307732   -0.000045
     12          1           0        0.076639    2.482670   -0.000042
 ---------------------------------------------------------------------
 Rotational constants (GHZ):      5.6854003      5.6849678      2.8425920
 Leave Link  202 at Thu Mar 19 17:08:59 2026, MaxMem=   536870912 cpu:         0.0
 (Enter C:\G09W\l301.exe)
 Standard basis: 6-31G(d) (6D, 7F)
 Ernie: Thresh=  0.10000D-02 Tol=  0.10000D-05 Strict=F.
 There are   102 symmetry adapted cartesian basis functions of A   symmetry.
 There are   102 symmetry adapted basis functions of A   symmetry.
   102 basis functions,   192 primitive gaussians,   102 cartesian basis functions
    21 alpha electrons       21 beta electrons
       nuclear repulsion energy       203.1594852558 Hartrees.
 IExCor=  402 DFT=T Ex+Corr=B3LYP ExCW=0 ScaHFX=  0.200000
 ScaDFX=  0.800000  0.720000  1.000000  0.810000 ScalE2=  1.000000  1.000000
 IRadAn=      0 IRanWt=     -1 IRanGd=            0 ICorTp=0 IEmpDi=  4
 NAtoms=   12 NActive=   12 NUniq=   12 SFac= 1.00D+00 NAtFMM=   60 NAOKFM=F Big=F
 Integral buffers will be    131072 words long.
 Raffenetti 2 integral format.
 Two-electron integral symmetry is turned on.
 Leave Link  301 at Thu Mar 19 17:08:59 2026, MaxMem=   536870912 cpu:         0.0
 (Enter C:\G09W\l302.exe)
 NPDir=0 NMtPBC=     1 NCelOv=     1 NCel=       1 NClECP=     1 NCelD=      1
         NCelK=      1 NCelE2=     1 NClLst=     1 CellRange=     0.0.
 One-electron integrals computed using PRISM.
 NBasis=   102 RedAO= T EigKep=  5.22D-04  NBF=   102
 NBsUse=   102 1.00D-06 EigRej= -1.00D+00 NBFU=   102
 Precomputing XC quadrature grid using
 IXCGrd= 4 IRadAn=           0 IRanWt=          -1 IRanGd=           0 AccXCQ= 0.00D+00.
 Generated NRdTot=       0 NPtTot=           0 NUsed=           0 NTot=          32
 NSgBfM=   102   102   102   102   102 MxSgAt=    12 MxSgA2=    12.
 Leave Link  302 at Thu Mar 19 17:09:00 2026, MaxMem=   536870912 cpu:         1.0
 (Enter C:\G09W\l303.exe)
 DipDrv:  MaxL=1.
 Leave Link  303 at Thu Mar 19 17:09:00 2026, MaxMem=   536870912 cpu:         0.0
 (Enter C:\G09W\l401.exe)
 Initial guess from the checkpoint file:  "benzene_rdkit.chk"
 B after Tr=     0.000000    0.000000    0.000000
         Rot=    0.972730   -0.006110   -0.003665   -0.231830 Ang= -26.82 deg.
 Guess basis will be translated and rotated to current coordinates.
 JPrj=2 DoOrth=T DoCkMO=T.
 Leave Link  401 at Thu Mar 19 17:09:00 2026, MaxMem=   536870912 cpu:         0.0
 (Enter C:\G09W\l502.exe)
 Closed shell SCF:
 Using DIIS extrapolation, IDIIS=  1040.
 Integral symmetry usage will be decided dynamically.
 Keep R1 ints in memory in canonical form, NReq=14774045.
 IVT=       51148 IEndB=       51148 NGot=   536870912 MDV=   523020134
 LenX=   523020134 LenY=   523009289
 Requested convergence on RMS density matrix=1.00D-08 within 128 cycles.
 Requested convergence on MAX density matrix=1.00D-06.
 Requested convergence on             energy=1.00D-06.
 No special actions if energy rises.
 FoFCou: FMM=F IPFlag=           0 FMFlag=           0 FMFlg1=           0
         NFxFlg=           0 DoJE=F BraDBF=F KetDBF=F FulRan=T
         wScrn=  0.000000 ICntrl=     600 IOpCl=  0 I1Cent=           0 NGrid=           0
         NMat0=    1 NMatS0=   5253 NMatT0=    0 NMatD0=    1 NMtDS0=    0 NMtDT0=    0
 Symmetry not used in FoFCou.

 Cycle   1  Pass 1  IDiag  1:
 E= -232.248651700517    
 DIIS: error= 2.55D-04 at cycle   1 NSaved=   1.
 NSaved= 1 IEnMin= 1 EnMin= -232.248651700517     IErMin= 1 ErrMin= 2.55D-04
 ErrMax= 2.55D-04  0.00D+00 EMaxC= 1.00D-01 BMatC= 3.89D-06 BMatP= 3.89D-06
 IDIUse=3 WtCom= 9.97D-01 WtEn= 2.55D-03
 Coeff-Com:  0.100D+01
 Coeff-En:   0.100D+01
 Coeff:      0.100D+01
 Gap=     1.886 Goal=   None    Shift=    0.000
 RMSDP=3.56D-05 MaxDP=3.80D-04              OVMax= 6.29D-04

 Cycle   2  Pass 1  IDiag  1:
 E= -232.248655596512     Delta-E=       -0.000003895995 Rises=F Damp=F
 DIIS: error= 1.16D-04 at cycle   2 NSaved=   2.
 NSaved= 2 IEnMin= 2 EnMin= -232.248655596512     IErMin= 2 ErrMin= 1.16D-04
 ErrMax= 1.16D-04  0.00D+00 EMaxC= 1.00D-01 BMatC= 1.13D-06 BMatP= 3.89D-06
 IDIUse=3 WtCom= 9.99D-01 WtEn= 1.16D-03
 Coeff-Com:  0.311D+00 0.689D+00
 Coeff-En:   0.000D+00 0.100D+01
 Coeff:      0.311D+00 0.689D+00
 Gap=     0.250 Goal=   None    Shift=    0.000
 RMSDP=1.59D-05 MaxDP=1.90D-04 DE=-3.90D-06 OVMax= 3.19D-04

 Cycle   3  Pass 1  IDiag  1:
 E= -232.248656555295     Delta-E=       -0.000000958784 Rises=F Damp=F
 DIIS: error= 4.47D-05 at cycle   3 NSaved=   3.
 NSaved= 3 IEnMin= 3 EnMin= -232.248656555295     IErMin= 3 ErrMin= 4.47D-05
 ErrMax= 4.47D-05  0.00D+00 EMaxC= 1.00D-01 BMatC= 2.00D-07 BMatP= 1.13D-06
 IDIUse=1 WtCom= 1.00D+00 WtEn= 0.00D+00
 Coeff-Com:  0.677D-03 0.294D+00 0.706D+00
 Coeff:      0.677D-03 0.294D+00 0.706D+00
 Gap=     0.250 Goal=   None    Shift=    0.000
 RMSDP=5.68D-06 MaxDP=6.47D-05 DE=-9.59D-07 OVMax= 1.15D-04

 Cycle   4  Pass 1  IDiag  1:
 E= -232.248656771053     Delta-E=       -0.000000215757 Rises=F Damp=F
 DIIS: error= 3.57D-06 at cycle   4 NSaved=   4.
 NSaved= 4 IEnMin= 4 EnMin= -232.248656771053     IErMin= 4 ErrMin= 3.57D-06
 ErrMax= 3.57D-06  0.00D+00 EMaxC= 1.00D-01 BMatC= 7.99D-10 BMatP= 2.00D-07
 IDIUse=1 WtCom= 1.00D+00 WtEn= 0.00D+00
 Coeff-Com: -0.381D-02 0.425D-01 0.140D+00 0.821D+00
 Coeff:     -0.381D-02 0.425D-01 0.140D+00 0.821D+00
 Gap=     0.250 Goal=   None    Shift=    0.000
 RMSDP=3.89D-07 MaxDP=3.30D-06 DE=-2.16D-07 OVMax= 5.27D-06

 Cycle   5  Pass 1  IDiag  1:
 E= -232.248656771773     Delta-E=       -0.000000000720 Rises=F Damp=F
 DIIS: error= 6.25D-07 at cycle   5 NSaved=   5.
 NSaved= 5 IEnMin= 5 EnMin= -232.248656771773     IErMin= 5 ErrMin= 6.25D-07
 ErrMax= 6.25D-07  0.00D+00 EMaxC= 1.00D-01 BMatC= 2.31D-11 BMatP= 7.99D-10
 IDIUse=1 WtCom= 1.00D+00 WtEn= 0.00D+00
 Coeff-Com: -0.774D-03 0.536D-03 0.136D-01 0.171D+00 0.816D+00
 Coeff:     -0.774D-03 0.536D-03 0.136D-01 0.171D+00 0.816D+00
 Gap=     0.250 Goal=   None    Shift=    0.000
 RMSDP=5.66D-08 MaxDP=7.52D-07 DE=-7.20D-10 OVMax= 1.23D-06

 Cycle   6  Pass 1  IDiag  1:
 E= -232.248656771789     Delta-E=       -0.000000000016 Rises=F Damp=F
 DIIS: error= 7.02D-08 at cycle   6 NSaved=   6.
 NSaved= 6 IEnMin= 6 EnMin= -232.248656771789     IErMin= 6 ErrMin= 7.02D-08
 ErrMax= 7.02D-08  0.00D+00 EMaxC= 1.00D-01 BMatC= 3.52D-13 BMatP= 2.31D-11
 IDIUse=1 WtCom= 1.00D+00 WtEn= 0.00D+00
 Coeff-Com: -0.190D-03-0.412D-04 0.290D-02 0.405D-01 0.213D+00 0.744D+00
 Coeff:     -0.190D-03-0.412D-04 0.290D-02 0.405D-01 0.213D+00 0.744D+00
 Gap=     0.250 Goal=   None    Shift=    0.000
 RMSDP=9.41D-09 MaxDP=1.88D-07 DE=-1.64D-11 OVMax= 3.42D-07

 SCF Done:  E(RB3LYP) =  -232.248656772     A.U. after    6 cycles
            NFock=  6  Conv=0.94D-08     -V/T= 2.0101
 KE= 2.299222473373D+02 PE=-9.436535447814D+02 EE= 2.783231554165D+02
 Leave Link  502 at Thu Mar 19 17:09:05 2026, MaxMem=   536870912 cpu:         4.0
 (Enter C:\G09W\l701.exe)
 Compute integral first derivatives.
 ... and contract with generalized density number  0.
 Leave Link  701 at Thu Mar 19 17:09:06 2026, MaxMem=   536870912 cpu:         1.0
 (Enter C:\G09W\l702.exe)
 L702 exits ... SP integral derivatives will be done elsewhere.
 Leave Link  702 at Thu Mar 19 17:09:06 2026, MaxMem=   536870912 cpu:         0.0
 (Enter C:\G09W\l703.exe)
 Compute integral first derivatives, UseDBF=F ICtDFT=           0.
 Integral derivatives from FoFJK, PRISM(SPDF).
 Calling FoFJK, ICntrl=      2127 FMM=F ISym2X=0 I1Cent= 0 IOpClX= 0 NMat=1 NMatS=1 NMatT=0.
 FoFJK:  IHMeth= 1 ICntrl=    2127 DoSepK=F KAlg= 0 I1Cent=   0 FoldK=F
 IRaf=         0 NMat=   1 IRICut=       1 DoRegI=T DoRafI=F ISym2E= 0.
 FoFCou: FMM=F IPFlag=           0 FMFlag=      100000 FMFlg1=         800
         NFxFlg=           0 DoJE=F BraDBF=F KetDBF=F FulRan=T
         wScrn=  0.000000 ICntrl=    2127 IOpCl=  0 I1Cent=           0 NGrid=           0
         NMat0=    1 NMatS0=      1 NMatT0=    0 NMatD0=    1 NMtDS0=    0 NMtDT0=    0
 Symmetry not used in FoFCou.
 Leave Link  703 at Thu Mar 19 17:09:08 2026, MaxMem=   536870912 cpu:         2.0
 (Enter C:\G09W\l716.exe)
 Dipole        = 1.06049451D-06 4.65739761D-07-7.69296236D-07
 ***** Axes restored to original set *****
 -------------------------------------------------------------------
 Center     Atomic                   Forces (Hartrees/Bohr)
 Number     Number              X              Y              Z
 -------------------------------------------------------------------
      1        6           0.000172922    0.000098307   -0.000002161
      2        6          -0.000028850    0.000152122   -0.000005571
      3        6          -0.000105123    0.000063288   -0.000007732
      4        6          -0.000172865   -0.000098272    0.000002245
      5        6           0.000028730   -0.000152099    0.000005512
      6        6           0.000105121   -0.000063370    0.000007827
      7        1           0.000041086    0.000025044   -0.000000299
      8        1           0.000004408    0.000047902    0.000002066
      9        1          -0.000038950    0.000024397    0.000002339
     10        1          -0.000041067   -0.000025033    0.000000265
     11        1          -0.000004374   -0.000047889   -0.000002089
     12        1           0.000038964   -0.000024396   -0.000002401
 -------------------------------------------------------------------
 Cartesian Forces:  Max     0.000172922 RMS     0.000068891
 Leave Link  716 at Thu Mar 19 17:09:08 2026, MaxMem=   536870912 cpu:         0.0
 (Enter C:\G09W\l103.exe)

 GradGradGradGradGradGradGradGradGradGradGradGradGradGradGradGradGradGrad
 Berny optimization.
 Using GEDIIS/GDIIS optimizer.
 FormGI is forming the generalized inverse of G from B-inverse, IUseBI=4.
 Internal  Forces:  Max     0.000206433 RMS     0.000070725
 Search for a local minimum.
 Step number   2 out of a maximum of   64
 All quantities printed in internal units (Hartrees-Bohrs-Radians)
 RMS Force = .70725D-04 SwitMx=.10000D-02 MixMth= 2
 Mixed Optimization -- En-DIIS/RFO-DIIS
 Swapping is turned off.
 Update second derivatives using D2CorX and points    1    2
 DE= -1.74D-05 DEPred=-2.03D-05 R= 8.56D-01
 TightC=F SS=  1.41D+00  RLast= 9.38D-03 DXNew= 5.0454D-01 2.8143D-02
 Trust test= 8.56D-01 RLast= 9.38D-03 DXMaxT set to 3.00D-01
 ITU=  1  0
     Eigenvalues ---    0.02157   0.02157   0.02157   0.02157   0.02157
     Eigenvalues ---    0.02157   0.02157   0.02157   0.02157   0.16000
     Eigenvalues ---    0.16000   0.16000   0.16000   0.16000   0.16000
     Eigenvalues ---    0.21998   0.22000   0.22004   0.35193   0.35193
     Eigenvalues ---    0.35193   0.35193   0.35193   0.35339   0.42150
     Eigenvalues ---    0.42151   0.46489   0.46489   0.46489   0.51815
 En-DIIS/RFO-DIIS IScMMF=        0 using points:     2    1
 RFO step:  Lambda=-3.79348136D-07.
 NNeg= 0 NP= 2 Switch=  2.50D-03 Rises=F DC=  1.74D-05 SmlDif=  1.00D-05
 RMS Error=  0.9960283315D-04 NUsed= 2 EDIIS=F
 DidBck=F Rises=F RFO-DIIS coefs:    0.89348    0.10652
 Iteration  1 RMS(Cart)=  0.00022083 RMS(Int)=  0.00000001
 Iteration  2 RMS(Cart)=  0.00000001 RMS(Int)=  0.00000000
 ITry= 1 IFail=0 DXMaxC= 5.52D-04 DCOld= 1.00D+10 DXMaxT= 3.00D-01 DXLimC= 3.00D+00 Rises=F
 Variable       Old X    -DE/DX   Delta X   Delta X   Delta X     New X
                                 (Linear)    (Quad)   (Total)
    R1        2.63961  -0.00021  -0.00040   0.00001  -0.00039   2.63922
    R2        2.63961  -0.00021  -0.00040   0.00001  -0.00039   2.63921
    R3        2.05428  -0.00005  -0.00007  -0.00005  -0.00012   2.05416
    R4        2.63961  -0.00020  -0.00040   0.00001  -0.00039   2.63922
    R5        2.05428  -0.00005  -0.00007  -0.00005  -0.00012   2.05416
    R6        2.63961  -0.00021  -0.00040   0.00001  -0.00039   2.63922
    R7        2.05428  -0.00005  -0.00007  -0.00005  -0.00012   2.05417
    R8        2.63961  -0.00021  -0.00040   0.00001  -0.00039   2.63922
    R9        2.05428  -0.00005  -0.00007  -0.00005  -0.00012   2.05416
   R10        2.63961  -0.00020  -0.00040   0.00001  -0.00039   2.63922
   R11        2.05428  -0.00005  -0.00007  -0.00005  -0.00012   2.05416
   R12        2.05428  -0.00005  -0.00007  -0.00005  -0.00012   2.05417
    A1        2.09436   0.00003   0.00000   0.00011   0.00011   2.09446
    A2        2.09444  -0.00002   0.00000  -0.00006  -0.00007   2.09438
    A3        2.09439  -0.00001   0.00000  -0.00004  -0.00004   2.09434
    A4        2.09436   0.00000   0.00000  -0.00002  -0.00002   2.09434
    A5        2.09440   0.00001   0.00000   0.00005   0.00005   2.09445
    A6        2.09444  -0.00001   0.00000  -0.00003  -0.00003   2.09440
    A7        2.09447  -0.00002  -0.00001  -0.00008  -0.00009   2.09438
    A8        2.09436   0.00002   0.00000   0.00007   0.00007   2.09443
    A9        2.09435   0.00001   0.00000   0.00002   0.00002   2.09437
   A10        2.09436   0.00003   0.00000   0.00011   0.00011   2.09446
   A11        2.09439  -0.00001   0.00000  -0.00004  -0.00004   2.09434
   A12        2.09444  -0.00002   0.00000  -0.00006  -0.00007   2.09438
   A13        2.09436   0.00000   0.00000  -0.00002  -0.00002   2.09434
   A14        2.09440   0.00001   0.00000   0.00005   0.00005   2.09445
   A15        2.09443  -0.00001   0.00000  -0.00003  -0.00003   2.09440
   A16        2.09447  -0.00002  -0.00001  -0.00008  -0.00009   2.09438
   A17        2.09435   0.00001   0.00000   0.00002   0.00002   2.09437
   A18        2.09436   0.00002   0.00000   0.00007   0.00007   2.09443
    D1        0.00002   0.00000   0.00000  -0.00002  -0.00002   0.00000
    D2       -3.14152   0.00000  -0.00001  -0.00006  -0.00007   3.14159
    D3       -3.14159   0.00000   0.00000  -0.00001  -0.00001   3.14159
    D4        0.00006   0.00000  -0.00001  -0.00006  -0.00006   0.00000
    D5       -0.00002   0.00000   0.00000   0.00002   0.00002   0.00000
    D6       -3.14153   0.00000  -0.00001  -0.00006  -0.00006  -3.14159
    D7        3.14159   0.00000   0.00000   0.00001   0.00001  -3.14159
    D8        0.00008   0.00000  -0.00001  -0.00007  -0.00007   0.00000
    D9       -0.00002   0.00000   0.00000   0.00002   0.00002   0.00000
   D10       -3.14153   0.00000  -0.00001  -0.00006  -0.00006  -3.14159
   D11        3.14152   0.00000   0.00001   0.00007   0.00007  -3.14159
   D12        0.00001   0.00000   0.00000  -0.00001  -0.00001   0.00000
   D13        0.00002   0.00000   0.00000  -0.00002  -0.00002   0.00000
   D14       -3.14159   0.00000   0.00000  -0.00001  -0.00001   3.14159
   D15        3.14153   0.00000   0.00001   0.00006   0.00006   3.14159
   D16       -0.00008   0.00000   0.00001   0.00007   0.00007   0.00000
   D17       -0.00002   0.00000   0.00000   0.00002   0.00002   0.00000
   D18        3.14152   0.00000   0.00001   0.00007   0.00007  -3.14159
   D19        3.14159   0.00000   0.00000   0.00001   0.00001  -3.14159
   D20       -0.00006   0.00000   0.00001   0.00006   0.00006   0.00000
   D21        0.00002   0.00000   0.00000  -0.00002  -0.00002   0.00000
   D22        3.14153   0.00000   0.00001   0.00006   0.00006   3.14159
   D23       -3.14152   0.00000  -0.00001  -0.00007  -0.00007   3.14159
   D24       -0.00001   0.00000   0.00000   0.00001   0.00001   0.00000
         Item               Value     Threshold  Converged?
 Maximum Force            0.000206     0.000450     YES
 RMS     Force            0.000071     0.000300     YES
 Maximum Displacement     0.000552     0.001800     YES
 RMS     Displacement     0.000221     0.001200     YES
 Predicted change in Energy=-2.678598D-07
 Optimization completed.
    -- Stationary point found.
                           ----------------------------
                           !   Optimized Parameters   !
                           ! (Angstroms and Degrees)  !
 --------------------------                            --------------------------
 ! Name  Definition              Value          Derivative Info.                !
 --------------------------------------------------------------------------------
 ! R1    R(1,2)                  1.3968         -DE/DX =   -0.0002              !
 ! R2    R(1,6)                  1.3968         -DE/DX =   -0.0002              !
 ! R3    R(1,7)                  1.0871         -DE/DX =    0.0                 !
 ! R4    R(2,3)                  1.3968         -DE/DX =   -0.0002              !
 ! R5    R(2,8)                  1.0871         -DE/DX =    0.0                 !
 ! R6    R(3,4)                  1.3968         -DE/DX =   -0.0002              !
 ! R7    R(3,9)                  1.0871         -DE/DX =    0.0                 !
 ! R8    R(4,5)                  1.3968         -DE/DX =   -0.0002              !
 ! R9    R(4,10)                 1.0871         -DE/DX =    0.0                 !
 ! R10   R(5,6)                  1.3968         -DE/DX =   -0.0002              !
 ! R11   R(5,11)                 1.0871         -DE/DX =    0.0                 !
 ! R12   R(6,12)                 1.0871         -DE/DX =    0.0                 !
 ! A1    A(2,1,6)              119.9977         -DE/DX =    0.0                 !
 ! A2    A(2,1,7)              120.0027         -DE/DX =    0.0                 !
 ! A3    A(6,1,7)              119.9996         -DE/DX =    0.0                 !
 ! A4    A(1,2,3)              119.9977         -DE/DX =    0.0                 !
 ! A5    A(1,2,8)              120.0            -DE/DX =    0.0                 !
 ! A6    A(3,2,8)              120.0023         -DE/DX =    0.0                 !
 ! A7    A(2,3,4)              120.0046         -DE/DX =    0.0                 !
 ! A8    A(2,3,9)              119.9979         -DE/DX =    0.0                 !
 ! A9    A(4,3,9)              119.9975         -DE/DX =    0.0                 !
 ! A10   A(3,4,5)              119.9977         -DE/DX =    0.0                 !
 ! A11   A(3,4,10)             119.9996         -DE/DX =    0.0                 !
 ! A12   A(5,4,10)             120.0027         -DE/DX =    0.0                 !
 ! A13   A(4,5,6)              119.9977         -DE/DX =    0.0                 !
 ! A14   A(4,5,11)             120.0            -DE/DX =    0.0                 !
 ! A15   A(6,5,11)             120.0023         -DE/DX =    0.0                 !
 ! A16   A(1,6,5)              120.0046         -DE/DX =    0.0                 !
 ! A17   A(1,6,12)             119.9975         -DE/DX =    0.0                 !
 ! A18   A(5,6,12)             119.9979         -DE/DX =    0.0                 !
 ! D1    D(6,1,2,3)              0.0009         -DE/DX =    0.0                 !
 ! D2    D(6,1,2,8)            180.0041         -DE/DX =    0.0                 !
 ! D3    D(7,1,2,3)            180.0004         -DE/DX =    0.0                 !
 ! D4    D(7,1,2,8)              0.0036         -DE/DX =    0.0                 !
 ! D5    D(2,1,6,5)             -0.0009         -DE/DX =    0.0                 !
 ! D6    D(2,1,6,12)          -179.9961         -DE/DX =    0.0                 !
 ! D7    D(7,1,6,5)           -180.0004         -DE/DX =    0.0                 !
 ! D8    D(7,1,6,12)             0.0043         -DE/DX =    0.0                 !
 ! D9    D(1,2,3,4)             -0.0009         -DE/DX =    0.0                 !
 ! D10   D(1,2,3,9)           -179.9962         -DE/DX =    0.0                 !
 ! D11   D(8,2,3,4)           -180.0041         -DE/DX =    0.0                 !
 ! D12   D(8,2,3,9)              0.0005         -DE/DX =    0.0                 !
 ! D13   D(2,3,4,5)              0.0009         -DE/DX =    0.0                 !
 ! D14   D(2,3,4,10)           180.0003         -DE/DX =    0.0                 !
 ! D15   D(9,3,4,5)            179.9963         -DE/DX =    0.0                 !
 ! D16   D(9,3,4,10)            -0.0043         -DE/DX =    0.0                 !
 ! D17   D(3,4,5,6)             -0.0009         -DE/DX =    0.0                 !
 ! D18   D(3,4,5,11)          -180.0042         -DE/DX =    0.0                 !
 ! D19   D(10,4,5,6)          -180.0003         -DE/DX =    0.0                 !
 ! D20   D(10,4,5,11)           -0.0036         -DE/DX =    0.0                 !
 ! D21   D(4,5,6,1)              0.0009         -DE/DX =    0.0                 !
 ! D22   D(4,5,6,12)           179.9962         -DE/DX =    0.0                 !
 ! D23   D(11,5,6,1)           180.0042         -DE/DX =    0.0                 !
 ! D24   D(11,5,6,12)           -0.0006         -DE/DX =    0.0                 !
 --------------------------------------------------------------------------------
 Lowest energy point so far.  Saving SCF results.
 GradGradGradGradGradGradGradGradGradGradGradGradGradGradGradGradGradGrad

 Largest change from initial coordinates is atom   11       1.152 Angstoms.
 Leave Link  103 at Thu Mar 19 17:09:08 2026, MaxMem=   536870912 cpu:         0.0
 (Enter C:\G09W\l202.exe)
                          Input orientation:                          
 ---------------------------------------------------------------------
 Center     Atomic      Atomic             Coordinates (Angstroms)
 Number     Number       Type             X           Y           Z
 ---------------------------------------------------------------------
      1          6           0       -1.218454   -0.683018    0.005533
      2          6           0       -0.017735   -1.396598    0.019348
      3          6           0        1.200676   -0.713555    0.013823
      4          6           0        1.218454    0.683018   -0.005534
      5          6           0        0.017735    1.396598   -0.019348
      6          6           0       -1.200676    0.713555   -0.013824
      7          1           0       -2.166733   -1.214516    0.009837
      8          1           0       -0.031527   -2.483488    0.034345
      9          1           0        2.135140   -1.268898    0.024513
     10          1           0        2.166733    1.214516   -0.009837
     11          1           0        0.031527    2.483488   -0.034344
     12          1           0       -2.135140    1.268898   -0.024512
 ---------------------------------------------------------------------
                    Distance matrix (angstroms):
                    1          2          3          4          5
     1  C    0.000000
     2  C    1.396823   0.000000
     3  C    2.419337   1.396819   0.000000
     4  C    2.793689   2.419419   1.396821   0.000000
     5  C    2.419419   2.793690   2.419339   1.396823   0.000000
     6  C    1.396821   2.419339   2.793547   2.419337   1.396819
     7  H    1.087079   2.156719   3.404471   3.880768   3.404507
     8  H    2.156691   1.087080   2.156712   3.404527   3.880771
     9  H    3.404439   2.156665   1.087079   2.156662   3.404438
    10  H    3.880768   3.404507   2.156683   1.087079   2.156719
    11  H    3.404527   3.880771   3.404455   2.156691   1.087080
    12  H    2.156662   3.404438   3.880626   3.404439   2.156665
                    6          7          8          9         10
     6  C    0.000000
     7  H    2.156683   0.000000
     8  H    3.404455   2.483947   0.000000
     9  H    3.880626   4.302241   2.483902   0.000000
    10  H    3.404471   4.967847   4.302270   2.483852   0.000000
    11  H    2.156712   4.302270   4.967851   4.302215   2.483947
    12  H    1.087079   2.483852   4.302214   4.967706   4.302241
                   11         12
    11  H    0.000000
    12  H    2.483902   0.000000
 Stoichiometry    C6H6
 Framework group  C1[X(C6H6)]
 Deg. of freedom    30
 Full point group                 C1      NOp   1
 RotChk:  IX=2 Diff= 3.44D-11
 Largest Abelian subgroup         C1      NOp   1
 Largest concise Abelian subgroup C1      NOp   1
                         Standard orientation:                         
 ---------------------------------------------------------------------
 Center     Atomic      Atomic             Coordinates (Angstroms)
 Number     Number       Type             X           Y           Z
 ---------------------------------------------------------------------
      1          6           0        1.230682    0.660755   -0.000003
      2          6           0        1.187585   -0.735403   -0.000009
      3          6           0       -0.043095   -1.396108   -0.000016
      4          6           0       -1.230682   -0.660755    0.000003
      5          6           0       -1.187585    0.735403    0.000009
      6          6           0        0.043095    1.396108    0.000016
      7          1           0        2.188418    1.175034   -0.000004
      8          1           0        2.111806   -1.307732    0.000044
      9          1           0       -0.076639   -2.482670    0.000041
     10          1           0       -2.188418   -1.175034    0.000003
     11          1           0       -2.111806    1.307732   -0.000045
     12          1           0        0.076639    2.482670   -0.000042
 ---------------------------------------------------------------------
 Rotational constants (GHZ):      5.6854003      5.6849678      2.8425920
 Leave Link  202 at Thu Mar 19 17:09:08 2026, MaxMem=   536870912 cpu:         0.0
 (Enter C:\G09W\l601.exe)
 Copying SCF densities to generalized density rwf, IOpCl= 0 IROHF=0.

 **********************************************************************

            Population analysis using the SCF density.

 **********************************************************************

 Orbital symmetries:
       Occupied  (A) (A) (A) (A) (A) (A) (A) (A) (A) (A) (A) (A)
                 (A) (A) (A) (A) (A) (A) (A) (A) (A)
       Virtual   (A) (A) (A) (A) (A) (A) (A) (A) (A) (A) (A) (A)
                 (A) (A) (A) (A) (A) (A) (A) (A) (A) (A) (A) (A)
                 (A) (A) (A) (A) (A) (A) (A) (A) (A) (A) (A) (A)
                 (A) (A) (A) (A) (A) (A) (A) (A) (A) (A) (A) (A)
                 (A) (A) (A) (A) (A) (A) (A) (A) (A) (A) (A) (A)
                 (A) (A) (A) (A) (A) (A) (A) (A) (A) (A) (A) (A)
                 (A) (A) (A) (A) (A) (A) (A) (A) (A)
 The electronic state is 1-A.
 Alpha  occ. eigenvalues --  -10.18780 -10.18754 -10.18754 -10.18699 -10.18699
 Alpha  occ. eigenvalues --  -10.18672  -0.84623  -0.73978  -0.73978  -0.59747
 Alpha  occ. eigenvalues --   -0.59746  -0.51849  -0.45932  -0.43805  -0.41725
 Alpha  occ. eigenvalues --   -0.41723  -0.35934  -0.34029  -0.34027  -0.24627
 Alpha  occ. eigenvalues --   -0.24627
 Alpha virt. eigenvalues --    0.00357   0.00358   0.09073   0.14467   0.14468
 Alpha virt. eigenvalues --    0.16384   0.18180   0.18180   0.19020   0.30257
 Alpha virt. eigenvalues --    0.30258   0.31903   0.31904   0.47493   0.52736
 Alpha virt. eigenvalues --    0.54881   0.55022   0.56378   0.59251   0.60196
 Alpha virt. eigenvalues --    0.60196   0.60202   0.60205   0.62675   0.62676
 Alpha virt. eigenvalues --    0.66751   0.66752   0.74482   0.83997   0.83997
 Alpha virt. eigenvalues --    0.84099   0.86502   0.86503   0.93894   0.93896
 Alpha virt. eigenvalues --    0.94057   0.95782   1.08254   1.08255   1.14226
 Alpha virt. eigenvalues --    1.14228   1.20084   1.26189   1.39637   1.43623
 Alpha virt. eigenvalues --    1.43629   1.48689   1.48692   1.51539   1.51542
 Alpha virt. eigenvalues --    1.75685   1.78969   1.85716   1.89535   1.97336
 Alpha virt. eigenvalues --    1.97339   2.06566   2.06570   2.15147   2.15151
 Alpha virt. eigenvalues --    2.15411   2.15414   2.30926   2.30931   2.32136
 Alpha virt. eigenvalues --    2.54561   2.54561   2.65651   2.70496   2.70498
 Alpha virt. eigenvalues --    2.72168   2.72170   2.75993   3.01673   3.40953
 Alpha virt. eigenvalues --    4.08495   4.11767   4.11767   4.33028   4.33029
 Alpha virt. eigenvalues --    4.66570
          Condensed to atoms (all electrons):
               1          2          3          4          5          6
     1  C    4.848967   0.551387  -0.031945  -0.040864  -0.031939   0.551411
     2  C    0.551387   4.849024   0.551432  -0.031939  -0.040863  -0.031949
     3  C   -0.031945   0.551432   4.849003   0.551410  -0.031949  -0.040863
     4  C   -0.040864  -0.031939   0.551410   4.848968   0.551387  -0.031945
     5  C   -0.031939  -0.040863  -0.031949   0.551387   4.849025   0.551432
     6  C    0.551411  -0.031949  -0.040863  -0.031945   0.551432   4.849002
     7  H    0.358887  -0.043760   0.004779   0.000577   0.004779  -0.043757
     8  H   -0.043756   0.358897  -0.043749   0.004779   0.000577   0.004780
     9  H    0.004780  -0.043758   0.358889  -0.043760   0.004780   0.000577
    10  H    0.000577   0.004779  -0.043757   0.358887  -0.043760   0.004779
    11  H    0.004779   0.000577   0.004780  -0.043756   0.358897  -0.043749
    12  H   -0.043760   0.004780   0.000577   0.004780  -0.043758   0.358889
               7          8          9         10         11         12
     1  C    0.358887  -0.043756   0.004780   0.000577   0.004779  -0.043760
     2  C   -0.043760   0.358897  -0.043758   0.004779   0.000577   0.004780
     3  C    0.004779  -0.043749   0.358889  -0.043757   0.004780   0.000577
     4  C    0.000577   0.004779  -0.043760   0.358887  -0.043756   0.004780
     5  C    0.004779   0.000577   0.004780  -0.043760   0.358897  -0.043758
     6  C   -0.043757   0.004780   0.000577   0.004779  -0.043749   0.358889
     7  H    0.601994  -0.005862  -0.000182   0.000016  -0.000182  -0.005863
     8  H   -0.005862   0.601960  -0.005865  -0.000182   0.000016  -0.000182
     9  H   -0.000182  -0.005865   0.601989  -0.005863  -0.000182   0.000016
    10  H    0.000016  -0.000182  -0.005863   0.601994  -0.005862  -0.000182
    11  H   -0.000182   0.000016  -0.000182  -0.005862   0.601960  -0.005865
    12  H   -0.005863  -0.000182   0.000016  -0.000182  -0.005865   0.601989
 Mulliken charges:
               1
     1  C   -0.128524
     2  C   -0.128609
     3  C   -0.128607
     4  C   -0.128525
     5  C   -0.128609
     6  C   -0.128607
     7  H    0.128575
     8  H    0.128587
     9  H    0.128578
    10  H    0.128575
    11  H    0.128587
    12  H    0.128578
 Sum of Mulliken charges =   0.00000
 Mulliken charges with hydrogens summed into heavy atoms:
               1
     1  C    0.000051
     2  C   -0.000022
     3  C   -0.000028
     4  C    0.000050
     5  C   -0.000022
     6  C   -0.000028
 Electronic spatial extent (au):  <R**2>=            458.4207
 Charge=              0.0000 electrons
 Dipole moment (field-independent basis, Debye):
    X=              0.0000    Y=              0.0000    Z=              0.0000  Tot=              0.0000
 Quadrupole moment (field-independent basis, Debye-Ang):
   XX=            -31.4010   YY=            -31.4021   ZZ=            -38.6039
   XY=              0.0000   XZ=              0.0001   YZ=             -0.0003
 Traceless Quadrupole moment (field-independent basis, Debye-Ang):
   XX=              2.4014   YY=              2.4002   ZZ=             -4.8016
   XY=              0.0000   XZ=              0.0001   YZ=             -0.0003
 Octapole moment (field-independent basis, Debye-Ang**2):
  XXX=              0.0000  YYY=              0.0000  ZZZ=              0.0000  XYY=              0.0000
  XXY=              0.0000  XXZ=              0.0000  XZZ=              0.0000  YZZ=              0.0000
  YYZ=              0.0000  XYZ=              0.0000
 Hexadecapole moment (field-independent basis, Debye-Ang**3):
 XXXX=           -270.2215 YYYY=           -270.2130 ZZZZ=            -40.0578 XXXY=             -0.0012
 XXXZ=              0.0008 YYYX=              0.0002 YYYZ=             -0.0017 ZZZX=              0.0002
 ZZZY=             -0.0003 XXYY=            -90.0704 XXZZ=            -60.3891 YYZZ=            -60.3867
 XXYZ=             -0.0006 YYXZ=              0.0003 ZZXY=              0.0000
 N-N= 2.031594852558D+02 E-N=-9.436535443522D+02  KE= 2.299222473373D+02
 No NMR shielding tensors so no spin-rotation constants.
 Leave Link  601 at Thu Mar 19 17:09:09 2026, MaxMem=   536870912 cpu:         0.0
 (Enter C:\G09W\l9999.exe)
 1|1|UNPC-DESKTOP-GS7R1K3|FOpt|RB3LYP|6-31G(d)|C6H6|1172|19-Mar-2026|0|
 |#p opt B3LYP/6-31G(d)||benzene [rdkit]||0,1|C,-1.2184543342,-0.683018
 1048,0.0055329251|C,-0.0177350739,-1.3965984573,0.0193478519|C,1.20067
 60748,-0.7135553841,0.0138230804|C,1.2184541988,0.6830180857,-0.005533
 9805|C,0.0177349418,1.3965984568,-0.0193482665|C,-1.2006762283,0.71355
 53548,-0.0138239515|H,-2.1667328619,-1.2145157144,0.009837326|H,-0.031
 5274543,-2.4834878967,0.0343449849|H,2.1351396178,-1.2688980243,0.0245
 128021|H,2.1667327398,1.2145157016,-0.0098374276|H,0.0315271254,2.4834
 87919,-0.0343442646|H,-2.1351397458,1.2688980635,-0.0245120798||Versio
 n=EM64W-G09RevD.01|State=1-A|HF=-232.2486568|RMSD=9.408e-009|RMSF=6.88
 9e-005|Dipole=-0.000001,-0.0000006,0.0000008|Quadrupole=1.7846711,1.78
 41105,-3.5687816,0.0006114,0.0172528,-0.0741528|PG=C01 [X(C6H6)]||@


 THEORY:  SUPPOSITION WHICH HAS SCIENTIFIC BASIS,
          BUT NOT EXPERIMENTALLY PROVEN.
 FACT:    A THEORY WHICH HAS BEEN PROVEN BY ENOUGH 
          MONEY TO PAY FOR THE EXPERIMENTS.

                          --  THE WIZARD OF ID
 Job cpu time:       0 days  0 hours  0 minutes 24.0 seconds.
 File lengths (MBytes):  RWF=      6 Int=      0 D2E=      0 Chk=      2 Scr=      1
 Normal termination of Gaussian 09 at Thu Mar 19 17:09:09 2026.
