 Entering Gaussian System, Link 0=C:\G09W\g09.exe
 Input=benzene_xtb.com
 Output=C:\workspace\delta_chem\benchmark_results\benzene\benzene_xtb.out
 Initial command:
 C:\G09W\l1.exe ".\Gau-18556.inp" "C:\workspace\delta_chem\benchmark_results\benzene\benzene_xtb.out" /scrdir=".\"
 Entering Link 1 = C:\G09W\l1.exe PID=      6768.
  
 Copyright (c) 1988,1990,1992,1993,1995,1998,2003,2009,2013,
            Gaussian, Inc.  All Rights Reserved.
  
 This is part of the Gaussian(R) 09 program.  It is based on
 the Gaussian(R) 03 system (copyright 2003, Gaussian, Inc.),
 the Gaussian(R) 98 system (copyright 1998, Gaussian, Inc.),
 the Gaussian(R) 94 system (copyright 1995, Gaussian, Inc.),
 the Gaussian 92(TM) system (copyright 1992, Gaussian, Inc.),
 the Gaussian 90(TM) system (copyright 1990, Gaussian, Inc.),
 the Gaussian 88(TM) system (copyright 1988, Gaussian, Inc.),
 the Gaussian 86(TM) system (copyright 1986, Carnegie Mellon
 University), and the Gaussian 82(TM) system (copyright 1983,
 Carnegie Mellon University). Gaussian is a federally registered
 trademark of Gaussian, Inc.
  
 This software contains proprietary and confidential information,
 including trade secrets, belonging to Gaussian, Inc.
  
 This software is provided under written license and may be
 used, copied, transmitted, or stored only in accord with that
 written license.
  
 The following legend is applicable only to US Government
 contracts under FAR:
  
                    RESTRICTED RIGHTS LEGEND
  
 Use, reproduction and disclosure by the US Government is
 subject to restrictions as set forth in subparagraphs (a)
 and (c) of the Commercial Computer Software - Restricted
 Rights clause in FAR 52.227-19.
  
 Gaussian, Inc.
 340 Quinnipiac St., Bldg. 40, Wallingford CT 06492
  
  
 ---------------------------------------------------------------
 Warning -- This program may not be used in any manner that
 competes with the business of Gaussian, Inc. or will provide
 assistance to any competitor of Gaussian, Inc.  The licensee
 of this program is prohibited from giving any competitor of
 Gaussian, Inc. access to this program.  By using this program,
 the user acknowledges that Gaussian, Inc. is engaged in the
 business of creating and licensing software in the field of
 computational chemistry and represents and warrants to the
 licensee that it is not a competitor of Gaussian, Inc. and that
 it will not use this program in any manner prohibited above.
 ---------------------------------------------------------------
  

 Cite this work as:
 Gaussian 09, Revision D.01,
 M. J. Frisch, G. W. Trucks, H. B. Schlegel, G. E. Scuseria, 
 M. A. Robb, J. R. Cheeseman, G. Scalmani, V. Barone, B. Mennucci, 
 G. A. Petersson, H. Nakatsuji, M. Caricato, X. Li, H. P. Hratchian, 
 A. F. Izmaylov, J. Bloino, G. Zheng, J. L. Sonnenberg, M. Hada, 
 M. Ehara, K. Toyota, R. Fukuda, J. Hasegawa, M. Ishida, T. Nakajima, 
 Y. Honda, O. Kitao, H. Nakai, T. Vreven, J. A. Montgomery, Jr., 
 J. E. Peralta, F. Ogliaro, M. Bearpark, J. J. Heyd, E. Brothers, 
 K. N. Kudin, V. N. Staroverov, T. Keith, R. Kobayashi, J. Normand, 
 K. Raghavachari, A. Rendell, J. C. Burant, S. S. Iyengar, J. Tomasi, 
 M. Cossi, N. Rega, J. M. Millam, M. Klene, J. E. Knox, J. B. Cross, 
 V. Bakken, C. Adamo, J. Jaramillo, R. Gomperts, R. E. Stratmann, 
 O. Yazyev, A. J. Austin, R. Cammi, C. Pomelli, J. W. Ochterski, 
 R. L. Martin, K. Morokuma, V. G. Zakrzewski, G. A. Voth, 
 P. Salvador, J. J. Dannenberg, S. Dapprich, A. D. Daniels, 
 O. Farkas, J. B. Foresman, J. V. Ortiz, J. Cioslowski, 
 and D. J. Fox, Gaussian, Inc., Wallingford CT, 2013.
 
 ******************************************
 Gaussian 09:  EM64W-G09RevD.01 13-Apr-2013
                19-Mar-2026 
 ******************************************
 %NProcShared=4
 Will use up to    4 processors via shared memory.
 %Mem=4GB
 %Chk=benzene_xtb.chk
 ---------------------
 #p opt B3LYP/6-31G(d)
 ---------------------
 1/14=-1,18=20,19=15,26=3,38=1/1,3;
 2/9=110,12=2,17=6,18=5,40=1/2;
 3/5=1,6=6,7=1,11=2,16=1,25=1,30=1,71=1,74=-5/1,2,3;
 4//1;
 5/5=2,38=5/2;
 6/7=2,8=2,9=2,10=2,28=1/1;
 7//1,2,3,16;
 1/14=-1,18=20,19=15,26=3/3(2);
 2/9=110/2;
 99//99;
 2/9=110/2;
 3/5=1,6=6,7=1,11=2,16=1,25=1,30=1,71=1,74=-5/1,2,3;
 4/5=5,16=3,69=1/1;
 5/5=2,38=5/2;
 7//1,2,3,16;
 1/14=-1,18=20,19=15,26=3/3(-5);
 2/9=110/2;
 6/7=2,8=2,9=2,10=2,19=2,28=1/1;
 99/9=1/99;
 Leave Link    1 at Thu Mar 19 17:09:12 2026, MaxMem=   536870912 cpu:         0.0
 (Enter C:\G09W\l101.exe)
 -------------
 benzene [xtb]
 -------------
 Symbolic Z-matrix:
 Charge =  0 Multiplicity = 1
 C                     0.0928   -2.2578    0.53675 
 C                     2.82263   0.03223  -0.20211 
 C                     0.59022  -0.25834  -0.80675 
 C                    -0.57717   0.40555   0.98899 
 C                    -1.67164  -0.14625  -0.9967 
 C                     0.59975   2.10758  -0.43915 
 H                     1.48791   0.85889   0.44934 
 H                     1.74642  -1.37722  -0.14907 
 H                    -2.11485  -1.43063   0.94442 
 H                    -0.74796  -0.98115   0.08913 
 H                    -0.56379   0.99307  -0.56383 
 H                    -1.66431   2.05407   0.14898 
 
 Add virtual bond connecting atoms H10        and C1         Dist= 3.01D+00.
 Add virtual bond connecting atoms H11        and C6         Dist= 3.05D+00.
 Add virtual bond connecting atoms H11        and C5         Dist= 3.11D+00.
 Add virtual bond connecting atoms H10        and C5         Dist= 3.12D+00.
 Add virtual bond connecting atoms H10        and C4         Dist= 3.14D+00.
 Add virtual bond connecting atoms H11        and C4         Dist= 3.14D+00.
 Add virtual bond connecting atoms H10        and H9         Dist= 3.16D+00.
 Add virtual bond connecting atoms H12        and H11        Dist= 3.19D+00.
 Add virtual bond connecting atoms H7         and C2         Dist= 3.21D+00.
 Add virtual bond connecting atoms H10        and C3         Dist= 3.34D+00.
 Add virtual bond connecting atoms H11        and C3         Dist= 3.25D+00.
 Add virtual bond connecting atoms H8         and C3         Dist= 3.28D+00.
 Add virtual bond connecting atoms C2         and H8         Dist= 3.35D+00.
 Add virtual bond connecting atoms H7         and C3         Dist= 3.60D+00.
 Add virtual bond connecting atoms H7         and C6         Dist= 3.35D+00.
 NAtoms=     12 NQM=       12 NQMF=       0 NMMI=      0 NMMIF=      0
                NMic=       0 NMicF=      0.
                    Isotopes and Nuclear Properties:
 (Nuclear quadrupole moments (NQMom) in fm**2, nuclear magnetic moments (NMagM)
  in nuclear magnetons)

  Atom         1           2           3           4           5           6           7           8           9          10
 IAtWgt=          12          12          12          12          12          12           1           1           1           1
 AtmWgt=  12.0000000  12.0000000  12.0000000  12.0000000  12.0000000  12.0000000   1.0078250   1.0078250   1.0078250   1.0078250
 NucSpn=           0           0           0           0           0           0           1           1           1           1
 AtZEff=   0.0000000   0.0000000   0.0000000   0.0000000   0.0000000   0.0000000   0.0000000   0.0000000   0.0000000   0.0000000
 NQMom=    0.0000000   0.0000000   0.0000000   0.0000000   0.0000000   0.0000000   0.0000000   0.0000000   0.0000000   0.0000000
 NMagM=    0.0000000   0.0000000   0.0000000   0.0000000   0.0000000   0.0000000   2.7928460   2.7928460   2.7928460   2.7928460
 AtZNuc=   6.0000000   6.0000000   6.0000000   6.0000000   6.0000000   6.0000000   1.0000000   1.0000000   1.0000000   1.0000000

  Atom        11          12
 IAtWgt=           1           1
 AtmWgt=   1.0078250   1.0078250
 NucSpn=           1           1
 AtZEff=   0.0000000   0.0000000
 NQMom=    0.0000000   0.0000000
 NMagM=    2.7928460   2.7928460
 AtZNuc=   1.0000000   1.0000000
 Leave Link  101 at Thu Mar 19 17:09:13 2026, MaxMem=   536870912 cpu:         0.0
 (Enter C:\G09W\l103.exe)

 GradGradGradGradGradGradGradGradGradGradGradGradGradGradGradGradGradGrad
 Berny optimization.
 Initialization pass.
                           ----------------------------
                           !    Initial Parameters    !
                           ! (Angstroms and Degrees)  !
 --------------------------                            --------------------------
 ! Name  Definition              Value          Derivative Info.                !
 --------------------------------------------------------------------------------
 ! R1    R(1,10)                 1.5928         estimate D2E/DX2                !
 ! R2    R(2,7)                  1.6998         estimate D2E/DX2                !
 ! R3    R(2,8)                  1.7741         estimate D2E/DX2                !
 ! R4    R(3,7)                  1.9057         estimate D2E/DX2                !
 ! R5    R(3,8)                  1.7382         estimate D2E/DX2                !
 ! R6    R(3,10)                 1.7652         estimate D2E/DX2                !
 ! R7    R(3,11)                 1.7195         estimate D2E/DX2                !
 ! R8    R(4,10)                 1.6619         estimate D2E/DX2                !
 ! R9    R(4,11)                 1.6603         estimate D2E/DX2                !
 ! R10   R(5,10)                 1.652          estimate D2E/DX2                !
 ! R11   R(5,11)                 1.647          estimate D2E/DX2                !
 ! R12   R(6,7)                  1.7713         estimate D2E/DX2                !
 ! R13   R(6,11)                 1.616          estimate D2E/DX2                !
 ! R14   R(9,10)                 1.6739         estimate D2E/DX2                !
 ! R15   R(11,12)                1.6867         estimate D2E/DX2                !
 ! A1    A(7,2,8)               84.1786         estimate D2E/DX2                !
 ! A2    A(7,3,8)               79.3187         estimate D2E/DX2                !
 ! A3    A(7,3,10)             105.2272         estimate D2E/DX2                !
 ! A4    A(7,3,11)              78.2508         estimate D2E/DX2                !
 ! A5    A(8,3,10)              92.7887         estimate D2E/DX2                !
 ! A6    A(8,3,11)             149.4784         estimate D2E/DX2                !
 ! A7    A(10,3,11)             73.5921         estimate D2E/DX2                !
 ! A8    A(10,4,11)             77.8588         estimate D2E/DX2                !
 ! A9    A(10,5,11)             78.508          estimate D2E/DX2                !
 ! A10   A(7,6,11)              85.0396         estimate D2E/DX2                !
 ! A11   A(2,7,3)               80.338          estimate D2E/DX2                !
 ! A12   A(2,7,6)              122.9792         estimate D2E/DX2                !
 ! A13   A(3,7,6)               81.169          estimate D2E/DX2                !
 ! A14   A(2,8,3)               83.1542         estimate D2E/DX2                !
 ! A15   A(1,10,3)              94.0524         estimate D2E/DX2                !
 ! A16   A(1,10,4)             117.5401         estimate D2E/DX2                !
 ! A17   A(1,10,5)             152.2377         estimate D2E/DX2                !
 ! A18   A(1,10,9)              94.1415         estimate D2E/DX2                !
 ! A19   A(3,10,4)              81.6754         estimate D2E/DX2                !
 ! A20   A(3,10,5)              83.3008         estimate D2E/DX2                !
 ! A21   A(4,10,5)              89.5222         estimate D2E/DX2                !
 ! A22   A(4,10,9)              91.7941         estimate D2E/DX2                !
 ! A23   A(5,10,9)              90.858          estimate D2E/DX2                !
 ! A24   A(3,11,4)              83.1081         estimate D2E/DX2                !
 ! A25   A(3,11,5)              84.8865         estimate D2E/DX2                !
 ! A26   A(3,11,6)              91.6961         estimate D2E/DX2                !
 ! A27   A(3,11,12)            162.8191         estimate D2E/DX2                !
 ! A28   A(4,11,5)              89.7481         estimate D2E/DX2                !
 ! A29   A(4,11,6)             100.2353         estimate D2E/DX2                !
 ! A30   A(4,11,12)             79.7517         estimate D2E/DX2                !
 ! A31   A(5,11,12)             96.1613         estimate D2E/DX2                !
 ! A32   A(6,11,12)             90.1918         estimate D2E/DX2                !
 ! A33   L(3,10,9,1,-1)        188.1939         estimate D2E/DX2                !
 ! A34   L(5,11,6,3,-1)        176.5826         estimate D2E/DX2                !
 ! A35   L(3,10,9,1,-2)        176.9137         estimate D2E/DX2                !
 ! A36   L(5,11,6,3,-2)        169.5282         estimate D2E/DX2                !
 ! D1    D(8,2,7,3)            -40.2254         estimate D2E/DX2                !
 ! D2    D(8,2,7,6)           -113.0009         estimate D2E/DX2                !
 ! D3    D(7,2,8,3)             44.6696         estimate D2E/DX2                !
 ! D4    D(8,3,7,2)             41.8612         estimate D2E/DX2                !
 ! D5    D(8,3,7,6)            167.6812         estimate D2E/DX2                !
 ! D6    D(10,3,7,2)           131.8595         estimate D2E/DX2                !
 ! D7    D(10,3,7,6)          -102.3205         estimate D2E/DX2                !
 ! D8    D(11,3,7,2)          -158.9727         estimate D2E/DX2                !
 ! D9    D(11,3,7,6)           -33.1526         estimate D2E/DX2                !
 ! D10   D(7,3,8,2)            -39.4059         estimate D2E/DX2                !
 ! D11   D(10,3,8,2)          -144.3815         estimate D2E/DX2                !
 ! D12   D(11,3,8,2)           -82.6911         estimate D2E/DX2                !
 ! D13   D(7,3,10,1)           -91.0388         estimate D2E/DX2                !
 ! D14   D(7,3,10,4)            26.2256         estimate D2E/DX2                !
 ! D15   D(7,3,10,5)           116.7241         estimate D2E/DX2                !
 ! D16   D(8,3,10,1)           -11.3537         estimate D2E/DX2                !
 ! D17   D(8,3,10,4)           105.9107         estimate D2E/DX2                !
 ! D18   D(8,3,10,5)          -163.5908         estimate D2E/DX2                !
 ! D19   D(11,3,10,1)         -163.572          estimate D2E/DX2                !
 ! D20   D(11,3,10,4)          -46.3076         estimate D2E/DX2                !
 ! D21   D(11,3,10,5)           44.1909         estimate D2E/DX2                !
 ! D22   D(7,3,11,4)           -63.7672         estimate D2E/DX2                !
 ! D23   D(7,3,11,5)          -154.1322         estimate D2E/DX2                !
 ! D24   D(7,3,11,6)            36.3396         estimate D2E/DX2                !
 ! D25   D(7,3,11,12)          -59.8093         estimate D2E/DX2                !
 ! D26   D(8,3,11,4)           -20.2818         estimate D2E/DX2                !
 ! D27   D(8,3,11,5)          -110.6468         estimate D2E/DX2                !
 ! D28   D(8,3,11,6)            79.825          estimate D2E/DX2                !
 ! D29   D(8,3,11,12)          -16.3239         estimate D2E/DX2                !
 ! D30   D(10,3,11,4)           46.1646         estimate D2E/DX2                !
 ! D31   D(10,3,11,5)          -44.2003         estimate D2E/DX2                !
 ! D32   D(10,3,11,6)          146.2715         estimate D2E/DX2                !
 ! D33   D(10,3,11,12)          50.1225         estimate D2E/DX2                !
 ! D34   D(11,4,10,1)          137.5328         estimate D2E/DX2                !
 ! D35   D(11,4,10,3)           47.2894         estimate D2E/DX2                !
 ! D36   D(11,4,10,5)          -36.0099         estimate D2E/DX2                !
 ! D37   D(11,4,10,9)         -126.8534         estimate D2E/DX2                !
 ! D38   D(10,4,11,3)          -48.7443         estimate D2E/DX2                !
 ! D39   D(10,4,11,5)           36.1355         estimate D2E/DX2                !
 ! D40   D(10,4,11,6)         -139.2296         estimate D2E/DX2                !
 ! D41   D(10,4,11,12)         132.443          estimate D2E/DX2                !
 ! D42   D(11,5,10,1)         -131.3924         estimate D2E/DX2                !
 ! D43   D(11,5,10,3)          -45.4281         estimate D2E/DX2                !
 ! D44   D(11,5,10,4)           36.2461         estimate D2E/DX2                !
 ! D45   D(11,5,10,9)          128.0333         estimate D2E/DX2                !
 ! D46   D(10,5,11,3)           46.8181         estimate D2E/DX2                !
 ! D47   D(10,5,11,4)          -36.285          estimate D2E/DX2                !
 ! D48   D(10,5,11,12)        -115.9488         estimate D2E/DX2                !
 ! D49   D(11,6,7,2)           107.2241         estimate D2E/DX2                !
 ! D50   D(11,6,7,3)            34.8793         estimate D2E/DX2                !
 ! D51   D(7,6,11,3)           -38.7946         estimate D2E/DX2                !
 ! D52   D(7,6,11,4)            44.507          estimate D2E/DX2                !
 ! D53   D(7,6,11,12)          124.1263         estimate D2E/DX2                !
 --------------------------------------------------------------------------------
 Trust Radius=3.00D-01 FncErr=1.00D-07 GrdErr=1.00D-06
 Number of steps in this run=    100 maximum allowed number of steps=    100.
 GradGradGradGradGradGradGradGradGradGradGradGradGradGradGradGradGradGrad

 Leave Link  103 at Thu Mar 19 17:09:13 2026, MaxMem=   536870912 cpu:         0.0
 (Enter C:\G09W\l202.exe)
                          Input orientation:                          
 ---------------------------------------------------------------------
 Center     Atomic      Atomic             Coordinates (Angstroms)
 Number     Number       Type             X           Y           Z
 ---------------------------------------------------------------------
      1          6           0        0.092800   -2.257798    0.536753
      2          6           0        2.822630    0.032233   -0.202111
      3          6           0        0.590223   -0.258338   -0.806745
      4          6           0       -0.577171    0.405549    0.988992
      5          6           0       -1.671644   -0.146253   -0.996702
      6          6           0        0.599749    2.107583   -0.439154
      7          1           0        1.487906    0.858885    0.449336
      8          1           0        1.746420   -1.377217   -0.149072
      9          1           0       -2.114845   -1.430627    0.944424
     10          1           0       -0.747964   -0.981151    0.089129
     11          1           0       -0.563793    0.993068   -0.563831
     12          1           0       -1.664309    2.054067    0.148981
 ---------------------------------------------------------------------
                    Distance matrix (angstroms):
                    1          2          3          4          5
     1  C    0.000000
     2  C    3.638974   0.000000
     3  C    2.459727   2.331020   0.000000
     4  C    2.783307   3.621703   2.242370   0.000000
     5  C    3.150138   4.567465   2.272596   2.333524   0.000000
     6  C    4.501771   3.050322   2.394325   2.514291   3.248056
     7  H    3.415798   1.699772   1.905718   2.182037   3.617193
     8  H    1.995054   1.774144   1.738165   3.142057   3.730538
     9  H    2.392510   5.275714   3.429031   2.395406   2.369391
    10  H    1.592821   3.723024   1.765161   1.661884   1.652050
    11  H    3.494357   3.538631   1.719528   1.660307   1.647047
    12  H    4.672256   4.933933   3.368017   2.145949   2.480735
                    6          7          8          9         10
     6  C    0.000000
     7  H    1.771293   0.000000
     8  H    3.680059   2.329179   0.000000
     9  H    4.669287   4.297301   4.013472   0.000000
    10  H    3.411113   2.917978   2.536841   1.673894   0.000000
    11  H    1.616019   2.292156   3.335770   3.248830   2.087539
    12  H    2.339813   3.384542   4.847227   3.602611   3.171091
                   11         12
    11  H    0.000000
    12  H    1.686699   0.000000
 Stoichiometry    C6H6
 Framework group  C1[X(C6H6)]
 Deg. of freedom    30
 Full point group                 C1      NOp   1
 Largest Abelian subgroup         C1      NOp   1
 Largest concise Abelian subgroup C1      NOp   1
                         Standard orientation:                         
 ---------------------------------------------------------------------
 Center     Atomic      Atomic             Coordinates (Angstroms)
 Number     Number       Type             X           Y           Z
 ---------------------------------------------------------------------
      1          6           0        0.967288    2.116724    0.229622
      2          6           0       -2.446488    0.889198   -0.055766
      3          6           0       -0.309218    0.243921   -0.726099
      4          6           0        0.676551   -0.494692    1.147650
      5          6           0        1.743228   -0.713151   -0.916281
      6          6           0       -1.133237   -1.861426    0.062125
      7          1           0       -1.448859   -0.247452    0.720114
      8          1           0       -0.938079    1.798511   -0.268933
      9          1           0        2.759427    0.621902    0.756736
     10          1           0        1.261950    0.566769    0.010783
     11          1           0        0.338094   -1.283489   -0.273569
     12          1           0        1.038722   -2.539689    0.607359
 ---------------------------------------------------------------------
 Rotational constants (GHZ):      3.1367917      2.6659757      1.7936664
 Leave Link  202 at Thu Mar 19 17:09:13 2026, MaxMem=   536870912 cpu:         0.0
 (Enter C:\G09W\l301.exe)
 Standard basis: 6-31G(d) (6D, 7F)
 Ernie: Thresh=  0.10000D-02 Tol=  0.10000D-05 Strict=F.
 There are   102 symmetry adapted cartesian basis functions of A   symmetry.
 There are   102 symmetry adapted basis functions of A   symmetry.
   102 basis functions,   192 primitive gaussians,   102 cartesian basis functions
    21 alpha electrons       21 beta electrons
       nuclear repulsion energy       151.2492435857 Hartrees.
 IExCor=  402 DFT=T Ex+Corr=B3LYP ExCW=0 ScaHFX=  0.200000
 ScaDFX=  0.800000  0.720000  1.000000  0.810000 ScalE2=  1.000000  1.000000
 IRadAn=      0 IRanWt=     -1 IRanGd=            0 ICorTp=0 IEmpDi=  4
 NAtoms=   12 NActive=   12 NUniq=   12 SFac= 1.00D+00 NAtFMM=   60 NAOKFM=F Big=F
 Integral buffers will be    131072 words long.
 Raffenetti 2 integral format.
 Two-electron integral symmetry is turned on.
 Leave Link  301 at Thu Mar 19 17:09:13 2026, MaxMem=   536870912 cpu:         0.0
 (Enter C:\G09W\l302.exe)
 NPDir=0 NMtPBC=     1 NCelOv=     1 NCel=       1 NClECP=     1 NCelD=      1
         NCelK=      1 NCelE2=     1 NClLst=     1 CellRange=     0.0.
 One-electron integrals computed using PRISM.
 NBasis=   102 RedAO= T EigKep=  1.43D-02  NBF=   102
 NBsUse=   102 1.00D-06 EigRej= -1.00D+00 NBFU=   102
 Precomputing XC quadrature grid using
 IXCGrd= 4 IRadAn=           0 IRanWt=          -1 IRanGd=           0 AccXCQ= 0.00D+00.
 Generated NRdTot=       0 NPtTot=           0 NUsed=           0 NTot=          32
 NSgBfM=   102   102   102   102   102 MxSgAt=    12 MxSgA2=    12.
 Leave Link  302 at Thu Mar 19 17:09:14 2026, MaxMem=   536870912 cpu:         1.0
 (Enter C:\G09W\l303.exe)
 DipDrv:  MaxL=1.
 Leave Link  303 at Thu Mar 19 17:09:14 2026, MaxMem=   536870912 cpu:         0.0
 (Enter C:\G09W\l401.exe)
 ExpMin= 1.61D-01 ExpMax= 3.05D+03 ExpMxC= 4.57D+02 IAcc=1 IRadAn=         1 AccDes= 0.00D+00
 Harris functional with IExCor=  402 and IRadAn=       1 diagonalized for initial guess.
 HarFok:  IExCor=  402 AccDes= 0.00D+00 IRadAn=         1 IDoV= 1 UseB2=F ITyADJ=14
 ICtDFT=  3500011 ScaDFX=  1.000000  1.000000  1.000000  1.000000
 FoFCou: FMM=F IPFlag=           0 FMFlag=      100000 FMFlg1=           0
         NFxFlg=           0 DoJE=T BraDBF=F KetDBF=T FulRan=T
         wScrn=  0.000000 ICntrl=     500 IOpCl=  0 I1Cent=   200000004 NGrid=           0
         NMat0=    1 NMatS0=      1 NMatT0=    0 NMatD0=    1 NMtDS0=    0 NMtDT0=    0
 Petite list used in FoFCou.
 Harris En= -230.608478002272    
 JPrj=0 DoOrth=F DoCkMO=F.
 Leave Link  401 at Thu Mar 19 17:09:14 2026, MaxMem=   536870912 cpu:         0.0
 (Enter C:\G09W\l502.exe)
 Closed shell SCF:
 Using DIIS extrapolation, IDIIS=  1040.
 Integral symmetry usage will be decided dynamically.
 Keep R1 ints in memory in canonical form, NReq=14774045.
 IVT=       51148 IEndB=       51148 NGot=   536870912 MDV=   523020134
 LenX=   523020134 LenY=   523009289
 Requested convergence on RMS density matrix=1.00D-08 within 128 cycles.
 Requested convergence on MAX density matrix=1.00D-06.
 Requested convergence on             energy=1.00D-06.
 No special actions if energy rises.
 FoFCou: FMM=F IPFlag=           0 FMFlag=           0 FMFlg1=           0
         NFxFlg=           0 DoJE=F BraDBF=F KetDBF=F FulRan=T
         wScrn=  0.000000 ICntrl=     600 IOpCl=  0 I1Cent=           0 NGrid=           0
         NMat0=    1 NMatS0=   5253 NMatT0=    0 NMatD0=    1 NMtDS0=    0 NMtDT0=    0
 Symmetry not used in FoFCou.
 Integral accuracy reduced to 1.0D-05 until final iterations.

 Cycle   1  Pass 0  IDiag  1:
 E= -230.508459963629    
 DIIS: error= 1.79D-02 at cycle   1 NSaved=   1.
 NSaved= 1 IEnMin= 1 EnMin= -230.508459963629     IErMin= 1 ErrMin= 1.79D-02
 ErrMax= 1.79D-02  0.00D+00 EMaxC= 1.00D-01 BMatC= 5.43D-02 BMatP= 5.43D-02
 IDIUse=3 WtCom= 8.21D-01 WtEn= 1.79D-01
 Coeff-Com:  0.100D+01
 Coeff-En:   0.100D+01
 Coeff:      0.100D+01
 Gap=    -0.064 Goal=   None    Shift=    0.000
 GapD=   -0.064 DampG=0.250 DampE=0.500 DampFc=0.2500 IDamp=-1.
 Damping current iteration by 2.50D-01
 RMSDP=1.48D-02 MaxDP=3.91D-01              OVMax= 7.82D-01

 Cycle   2  Pass 0  IDiag  1:
 E= -230.425765951190     Delta-E=        0.082694012440 Rises=F Damp=T
 DIIS: error= 1.74D-02 at cycle   2 NSaved=   2.
 NSaved= 2 IEnMin= 1 EnMin= -230.508459963629     IErMin= 2 ErrMin= 1.74D-02
 ErrMax= 1.74D-02  0.00D+00 EMaxC= 1.00D-01 BMatC= 4.37D-02 BMatP= 5.43D-02
 IDIUse=3 WtCom= 8.26D-01 WtEn= 1.74D-01
 Coeff-Com:  0.462D+00 0.538D+00
 Coeff-En:   0.688D+00 0.312D+00
 Coeff:      0.501D+00 0.499D+00
 Gap=     0.015 Goal=   None    Shift=    0.000
 RMSDP=5.27D-03 MaxDP=1.30D-01 DE= 8.27D-02 OVMax= 9.70D-01

 Cycle   3  Pass 0  IDiag  1:
 E= -230.326252531199     Delta-E=        0.099513419991 Rises=F Damp=F
 DIIS: error= 4.70D-02 at cycle   3 NSaved=   3.
 NSaved= 3 IEnMin= 1 EnMin= -230.508459963629     IErMin= 2 ErrMin= 1.74D-02
 ErrMax= 4.70D-02  0.00D+00 EMaxC= 1.00D-01 BMatC= 1.82D-01 BMatP= 4.37D-02
 IDIUse=2 WtCom= 0.00D+00 WtEn= 1.00D+00
 EnCoef did     4 forward-backward iterations
 Coeff-En:   0.581D+00 0.305D+00 0.114D+00
 Coeff:      0.581D+00 0.305D+00 0.114D+00
 Gap=     0.002 Goal=   None    Shift=    0.000
 RMSDP=1.02D-02 MaxDP=3.17D-01 DE= 9.95D-02 OVMax= 7.67D-01

 Cycle   4  Pass 0  IDiag  1:
 E= -229.731332091651     Delta-E=        0.594920439548 Rises=F Damp=F
 DIIS: error= 8.22D-02 at cycle   4 NSaved=   4.
 NSaved= 4 IEnMin= 1 EnMin= -230.508459963629     IErMin= 2 ErrMin= 1.74D-02
 ErrMax= 8.22D-02  0.00D+00 EMaxC= 1.00D-01 BMatC= 5.89D-01 BMatP= 4.37D-02
 IDIUse=2 WtCom= 0.00D+00 WtEn= 1.00D+00
 EnCoef did   100 forward-backward iterations
 Coeff-En:   0.642D+00 0.814D-02 0.171D+00 0.179D+00
 Coeff:      0.642D+00 0.814D-02 0.171D+00 0.179D+00
 Gap=     0.015 Goal=   None    Shift=    0.000
 RMSDP=6.96D-03 MaxDP=1.99D-01 DE= 5.95D-01 OVMax= 6.48D-01

 Problem detected with inexpensive integrals.
 Switching to full accuracy and repeating last cycle.
 Cycle   5  Pass 1  IDiag  1:
 E= -229.731327946285     Delta-E=        0.000004145366 Rises=F Damp=F
 DIIS: error= 8.22D-02 at cycle   1 NSaved=   1.
 NSaved= 1 IEnMin= 1 EnMin= -229.731327946285     IErMin= 1 ErrMin= 8.22D-02
 ErrMax= 8.22D-02  0.00D+00 EMaxC= 1.00D-01 BMatC= 5.89D-01 BMatP= 5.89D-01
 IDIUse=3 WtCom= 1.78D-01 WtEn= 8.22D-01
 Coeff-Com:  0.100D+01
 Coeff-En:   0.100D+01
 Coeff:      0.100D+01
 Gap=    -0.087 Goal=   None    Shift=    0.000
 GapD=   -0.087 DampG=0.250 DampE=0.500 DampFc=0.2500 IDamp=-1.
 Damping current iteration by 2.50D-01
 RMSDP=2.04D-02 MaxDP=5.54D-01 DE= 4.15D-06 OVMax= 7.44D-01

 Cycle   6  Pass 1  IDiag  1:
 E= -230.082966100940     Delta-E=       -0.351638154656 Rises=F Damp=T
 DIIS: error= 1.92D-02 at cycle   2 NSaved=   2.
 NSaved= 2 IEnMin= 2 EnMin= -230.082966100940     IErMin= 2 ErrMin= 1.92D-02
 ErrMax= 1.92D-02  0.00D+00 EMaxC= 1.00D-01 BMatC= 5.14D-02 BMatP= 5.89D-01
 IDIUse=3 WtCom= 8.08D-01 WtEn= 1.92D-01
 Coeff-Com:  0.211D-01 0.979D+00
 Coeff-En:   0.284D+00 0.716D+00
 Coeff:      0.716D-01 0.928D+00
 Gap=     0.066 Goal=   None    Shift=    0.000
 RMSDP=1.32D-02 MaxDP=3.19D-01 DE=-3.52D-01 OVMax= 7.88D-01

 Cycle   7  Pass 1  IDiag  1:
 E= -228.807008506058     Delta-E=        1.275957594882 Rises=F Damp=F
 DIIS: error= 8.82D-02 at cycle   3 NSaved=   3.
 NSaved= 3 IEnMin= 2 EnMin= -230.082966100940     IErMin= 2 ErrMin= 1.92D-02
 ErrMax= 8.82D-02  0.00D+00 EMaxC= 1.00D-01 BMatC= 9.39D-01 BMatP= 5.14D-02
 IDIUse=2 WtCom= 0.00D+00 WtEn= 1.00D+00
 EnCoef did     3 forward-backward iterations
 Coeff-En:   0.268D+00 0.534D+00 0.198D+00
 Coeff:      0.268D+00 0.534D+00 0.198D+00
 Gap=     0.035 Goal=   None    Shift=    0.000
 RMSDP=1.75D-02 MaxDP=3.94D-01 DE= 1.28D+00 OVMax= 6.70D-01

 Cycle   8  Pass 1  IDiag  1:
 E= -227.140235929416     Delta-E=        1.666772576642 Rises=F Damp=F
 DIIS: error= 1.46D-01 at cycle   4 NSaved=   4.
 NSaved= 4 IEnMin= 2 EnMin= -230.082966100940     IErMin= 2 ErrMin= 1.92D-02
 ErrMax= 1.46D-01  0.00D+00 EMaxC= 1.00D-01 BMatC= 2.09D+00 BMatP= 5.14D-02
 IDIUse=2 WtCom= 0.00D+00 WtEn= 1.00D+00
 EnCoef did   100 forward-backward iterations
 Coeff-En:   0.491D+00 0.185D-01 0.256D+00 0.235D+00
 Coeff:      0.491D+00 0.185D-01 0.256D+00 0.235D+00
 Gap=    -0.020 Goal=   None    Shift=    0.000
 RMSDP=1.25D-02 MaxDP=2.45D-01 DE= 1.67D+00 OVMax= 6.80D-01

 Cycle   9  Pass 1  IDiag  1:
 E= -229.732356839276     Delta-E=       -2.592120909860 Rises=F Damp=F
 DIIS: error= 8.07D-02 at cycle   5 NSaved=   5.
 NSaved= 5 IEnMin= 2 EnMin= -230.082966100940     IErMin= 2 ErrMin= 1.92D-02
 ErrMax= 8.07D-02  0.00D+00 EMaxC= 1.00D-01 BMatC= 4.97D-01 BMatP= 5.14D-02
 IDIUse=2 WtCom= 0.00D+00 WtEn= 1.00D+00
 EnCoef did   100 forward-backward iterations
 Coeff-En:   0.472D+00 0.689D-02 0.118D+00 0.112D+00 0.292D+00
 Coeff:      0.472D+00 0.689D-02 0.118D+00 0.112D+00 0.292D+00
 Gap=     0.062 Goal=   None    Shift=    0.000
 RMSDP=9.95D-03 MaxDP=1.63D-01 DE=-2.59D+00 OVMax= 4.82D-01

 Cycle  10  Pass 1  IDiag  1:
 E= -229.913631552051     Delta-E=       -0.181274712775 Rises=F Damp=F
 DIIS: error= 6.07D-02 at cycle   6 NSaved=   6.
 NSaved= 6 IEnMin= 2 EnMin= -230.082966100940     IErMin= 2 ErrMin= 1.92D-02
 ErrMax= 6.07D-02  0.00D+00 EMaxC= 1.00D-01 BMatC= 4.16D-01 BMatP= 5.14D-02
 IDIUse=2 WtCom= 0.00D+00 WtEn= 1.00D+00
 EnCoef did   100 forward-backward iterations
 Coeff-En:   0.388D+00 0.255D-02 0.266D-04 0.135D-02 0.329D+00 0.280D+00
 Coeff:      0.388D+00 0.255D-02 0.266D-04 0.135D-02 0.329D+00 0.280D+00
 Gap=     0.056 Goal=   None    Shift=    0.000
 RMSDP=8.13D-03 MaxDP=2.01D-01 DE=-1.81D-01 OVMax= 5.10D-01

 Cycle  11  Pass 1  IDiag  1:
 E= -230.314793320885     Delta-E=       -0.401161768834 Rises=F Damp=F
 DIIS: error= 4.32D-02 at cycle   7 NSaved=   7.
 NSaved= 7 IEnMin= 7 EnMin= -230.314793320885     IErMin= 2 ErrMin= 1.92D-02
 ErrMax= 4.32D-02  0.00D+00 EMaxC= 1.00D-01 BMatC= 1.66D-01 BMatP= 5.14D-02
 IDIUse=2 WtCom= 0.00D+00 WtEn= 1.00D+00
 EnCoef did   100 forward-backward iterations
 Coeff-En:   0.307D+00 0.129D-02 0.135D-04 0.684D-03 0.213D+00 0.236D+00
 Coeff-En:   0.242D+00
 Coeff:      0.307D+00 0.129D-02 0.135D-04 0.684D-03 0.213D+00 0.236D+00
 Coeff:      0.242D+00
 Gap=     0.018 Goal=   None    Shift=    0.000
 RMSDP=7.69D-03 MaxDP=1.81D-01 DE=-4.01D-01 OVMax= 5.40D-01

 Cycle  12  Pass 1  IDiag  1:
 E= -230.233701638475     Delta-E=        0.081091682410 Rises=F Damp=F
 DIIS: error= 5.28D-02 at cycle   8 NSaved=   8.
 NSaved= 8 IEnMin= 7 EnMin= -230.314793320885     IErMin= 2 ErrMin= 1.92D-02
 ErrMax= 5.28D-02  0.00D+00 EMaxC= 1.00D-01 BMatC= 2.51D-01 BMatP= 5.14D-02
 IDIUse=2 WtCom= 0.00D+00 WtEn= 1.00D+00
 EnCoef did     4 forward-backward iterations
 Coeff-En:   0.181D+00 0.000D+00 0.000D+00 0.000D+00 0.000D+00 0.413D-01
 Coeff-En:   0.413D+00 0.364D+00
 Coeff:      0.181D+00 0.000D+00 0.000D+00 0.000D+00 0.000D+00 0.413D-01
 Coeff:      0.413D+00 0.364D+00
 Gap=     0.031 Goal=   None    Shift=    0.000
 RMSDP=6.51D-03 MaxDP=1.16D-01 DE= 8.11D-02 OVMax= 3.46D-01

 Cycle  13  Pass 1  IDiag  1:
 E= -230.339576079919     Delta-E=       -0.105874441444 Rises=F Damp=F
 DIIS: error= 4.27D-02 at cycle   9 NSaved=   9.
 NSaved= 9 IEnMin= 9 EnMin= -230.339576079919     IErMin= 2 ErrMin= 1.92D-02
 ErrMax= 4.27D-02  0.00D+00 EMaxC= 1.00D-01 BMatC= 1.65D-01 BMatP= 5.14D-02
 IDIUse=2 WtCom= 0.00D+00 WtEn= 1.00D+00
 EnCoef did     6 forward-backward iterations
 Coeff-En:   0.106D+00 0.000D+00 0.000D+00 0.000D+00 0.000D+00 0.000D+00
 Coeff-En:   0.335D+00 0.339D+00 0.221D+00
 Coeff:      0.106D+00 0.000D+00 0.000D+00 0.000D+00 0.000D+00 0.000D+00
 Coeff:      0.335D+00 0.339D+00 0.221D+00
 Gap=     0.029 Goal=   None    Shift=    0.000
 RMSDP=4.22D-03 MaxDP=7.04D-02 DE=-1.06D-01 OVMax= 2.25D-01

 Cycle  14  Pass 1  IDiag  1:
 E= -230.553924804071     Delta-E=       -0.214348724152 Rises=F Damp=F
 DIIS: error= 2.08D-02 at cycle  10 NSaved=  10.
 NSaved=10 IEnMin=10 EnMin= -230.553924804071     IErMin= 2 ErrMin= 1.92D-02
 ErrMax= 2.08D-02  0.00D+00 EMaxC= 1.00D-01 BMatC= 2.09D-02 BMatP= 5.14D-02
 IDIUse=3 WtCom= 7.92D-01 WtEn= 2.08D-01
 EnCoef did   100 forward-backward iterations
 Coeff-Com: -0.409D-01 0.296D-01-0.314D-01-0.105D-01 0.538D-02 0.460D-01
 Coeff-Com:  0.179D+00 0.143D+00 0.119D+00 0.561D+00
 Coeff-En:   0.000D+00 0.000D+00 0.000D+00 0.000D+00 0.000D+00 0.250D-02
 Coeff-En:   0.983D-01 0.163D+00 0.691D-01 0.667D+00
 Coeff:     -0.324D-01 0.234D-01-0.249D-01-0.833D-02 0.426D-02 0.369D-01
 Coeff:      0.162D+00 0.147D+00 0.108D+00 0.583D+00
 Gap=     0.039 Goal=   None    Shift=    0.000
 RMSDP=2.39D-03 MaxDP=5.51D-02 DE=-2.14D-01 OVMax= 2.05D-01

 Cycle  15  Pass 1  IDiag  1:
 E= -230.575520512555     Delta-E=       -0.021595708484 Rises=F Damp=F
 DIIS: error= 7.28D-03 at cycle  11 NSaved=  11.
 NSaved=11 IEnMin=11 EnMin= -230.575520512555     IErMin=11 ErrMin= 7.28D-03
 ErrMax= 7.28D-03  0.00D+00 EMaxC= 1.00D-01 BMatC= 6.29D-03 BMatP= 2.09D-02
 IDIUse=3 WtCom= 9.27D-01 WtEn= 7.28D-02
 Coeff-Com: -0.175D-01 0.178D-01 0.745D-02-0.284D-02-0.103D-01 0.264D-02
 Coeff-Com: -0.451D-01 0.158D-01-0.217D-01 0.406D+00 0.647D+00
 Coeff-En:   0.000D+00 0.000D+00 0.000D+00 0.000D+00 0.000D+00 0.000D+00
 Coeff-En:   0.000D+00 0.000D+00 0.000D+00 0.330D+00 0.670D+00
 Coeff:     -0.162D-01 0.165D-01 0.690D-02-0.263D-02-0.954D-02 0.245D-02
 Coeff:     -0.418D-01 0.146D-01-0.201D-01 0.401D+00 0.649D+00
 Gap=     0.037 Goal=   None    Shift=    0.000
 RMSDP=9.62D-04 MaxDP=2.12D-02 DE=-2.16D-02 OVMax= 6.23D-02

 Cycle  16  Pass 1  IDiag  1:
 E= -230.584097545098     Delta-E=       -0.008577032543 Rises=F Damp=F
 DIIS: error= 3.62D-03 at cycle  12 NSaved=  12.
 NSaved=12 IEnMin=12 EnMin= -230.584097545098     IErMin=12 ErrMin= 3.62D-03
 ErrMax= 3.62D-03  0.00D+00 EMaxC= 1.00D-01 BMatC= 9.95D-04 BMatP= 6.29D-03
 IDIUse=3 WtCom= 9.64D-01 WtEn= 3.62D-02
 EnCoef did     5 forward-backward iterations
 Coeff-Com: -0.478D-02 0.882D-02-0.127D-03 0.259D-03-0.405D-02-0.129D-01
 Coeff-Com: -0.775D-02-0.299D-02 0.302D-02 0.196D+00 0.382D+00 0.442D+00
 Coeff-En:   0.000D+00 0.000D+00 0.000D+00 0.000D+00 0.000D+00 0.000D+00
 Coeff-En:   0.000D+00 0.000D+00 0.000D+00 0.885D-01 0.145D+00 0.766D+00
 Coeff:     -0.461D-02 0.850D-02-0.122D-03 0.249D-03-0.390D-02-0.124D-01
 Coeff:     -0.747D-02-0.289D-02 0.291D-02 0.192D+00 0.374D+00 0.454D+00
 Gap=     0.037 Goal=   None    Shift=    0.000
 RMSDP=3.99D-04 MaxDP=7.85D-03 DE=-8.58D-03 OVMax= 2.42D-02

 Cycle  17  Pass 1  IDiag  1:
 E= -230.585287257291     Delta-E=       -0.001189712192 Rises=F Damp=F
 DIIS: error= 1.39D-03 at cycle  13 NSaved=  13.
 NSaved=13 IEnMin=13 EnMin= -230.585287257291     IErMin=13 ErrMin= 1.39D-03
 ErrMax= 1.39D-03  0.00D+00 EMaxC= 1.00D-01 BMatC= 1.75D-04 BMatP= 9.95D-04
 IDIUse=3 WtCom= 9.86D-01 WtEn= 1.39D-02
 Coeff-Com: -0.279D-02 0.921D-02 0.120D-02-0.200D-03 0.157D-02-0.374D-02
 Coeff-Com: -0.560D-02-0.229D-03-0.752D-02 0.330D-01 0.694D-01 0.252D+00
 Coeff-Com:  0.654D+00
 Coeff-En:   0.000D+00 0.000D+00 0.000D+00 0.000D+00 0.000D+00 0.000D+00
 Coeff-En:   0.000D+00 0.000D+00 0.000D+00 0.000D+00 0.000D+00 0.238D+00
 Coeff-En:   0.762D+00
 Coeff:     -0.275D-02 0.909D-02 0.118D-02-0.197D-03 0.155D-02-0.369D-02
 Coeff:     -0.552D-02-0.226D-03-0.742D-02 0.325D-01 0.684D-01 0.252D+00
 Coeff:      0.655D+00
 Gap=     0.037 Goal=   None    Shift=    0.000
 RMSDP=1.92D-04 MaxDP=4.80D-03 DE=-1.19D-03 OVMax= 1.47D-02

 Cycle  18  Pass 1  IDiag  1:
 E= -230.585551304218     Delta-E=       -0.000264046927 Rises=F Damp=F
 DIIS: error= 5.10D-04 at cycle  14 NSaved=  14.
 NSaved=14 IEnMin=14 EnMin= -230.585551304218     IErMin=14 ErrMin= 5.10D-04
 ErrMax= 5.10D-04  0.00D+00 EMaxC= 1.00D-01 BMatC= 2.84D-05 BMatP= 1.75D-04
 IDIUse=3 WtCom= 9.95D-01 WtEn= 5.10D-03
 Coeff-Com: -0.142D-02 0.470D-02 0.156D-02-0.270D-03 0.198D-02-0.185D-02
 Coeff-Com: -0.640D-02 0.235D-02-0.892D-02-0.893D-02-0.767D-02 0.109D+00
 Coeff-Com:  0.495D+00 0.421D+00
 Coeff-En:   0.000D+00 0.000D+00 0.000D+00 0.000D+00 0.000D+00 0.000D+00
 Coeff-En:   0.000D+00 0.000D+00 0.000D+00 0.000D+00 0.000D+00 0.000D+00
 Coeff-En:   0.000D+00 0.100D+01
 Coeff:     -0.141D-02 0.467D-02 0.156D-02-0.269D-03 0.197D-02-0.184D-02
 Coeff:     -0.637D-02 0.233D-02-0.887D-02-0.888D-02-0.763D-02 0.108D+00
 Coeff:      0.492D+00 0.424D+00
 Gap=     0.037 Goal=   None    Shift=    0.000
 RMSDP=9.68D-05 MaxDP=1.54D-03 DE=-2.64D-04 OVMax= 6.24D-03

 Cycle  19  Pass 1  IDiag  1:
 E= -230.585603198486     Delta-E=       -0.000051894267 Rises=F Damp=F
 DIIS: error= 3.44D-04 at cycle  15 NSaved=  15.
 NSaved=15 IEnMin=15 EnMin= -230.585603198486     IErMin=15 ErrMin= 3.44D-04
 ErrMax= 3.44D-04  0.00D+00 EMaxC= 1.00D-01 BMatC= 9.88D-06 BMatP= 2.84D-05
 IDIUse=3 WtCom= 9.97D-01 WtEn= 3.44D-03
 Coeff-Com:  0.886D-03 0.985D-03-0.230D-03-0.284D-04 0.428D-03 0.723D-04
 Coeff-Com: -0.918D-03 0.286D-02-0.639D-02-0.321D-01-0.489D-01-0.654D-01
 Coeff-Com:  0.483D-01 0.320D+00 0.780D+00
 Coeff-En:   0.000D+00 0.000D+00 0.000D+00 0.000D+00 0.000D+00 0.000D+00
 Coeff-En:   0.000D+00 0.000D+00 0.000D+00 0.000D+00 0.000D+00 0.000D+00
 Coeff-En:   0.000D+00 0.000D+00 0.100D+01
 Coeff:      0.883D-03 0.982D-03-0.230D-03-0.283D-04 0.427D-03 0.720D-04
 Coeff:     -0.915D-03 0.285D-02-0.636D-02-0.320D-01-0.487D-01-0.652D-01
 Coeff:      0.481D-01 0.319D+00 0.781D+00
 Gap=     0.038 Goal=   None    Shift=    0.000
 RMSDP=1.63D-04 MaxDP=2.01D-03 DE=-5.19D-05 OVMax= 1.32D-02

 Cycle  20  Pass 1  IDiag  1:
 E= -230.585635129900     Delta-E=       -0.000031931415 Rises=F Damp=F
 DIIS: error= 3.58D-04 at cycle  16 NSaved=  16.
 NSaved=16 IEnMin=16 EnMin= -230.585635129900     IErMin=15 ErrMin= 3.44D-04
 ErrMax= 3.58D-04  0.00D+00 EMaxC= 1.00D-01 BMatC= 1.14D-05 BMatP= 9.88D-06
 IDIUse=3 WtCom= 9.97D-01 WtEn= 3.44D-03
 Coeff-Com:  0.113D-02-0.936D-05 0.977D-04-0.483D-04-0.129D-03 0.758D-03
 Coeff-Com: -0.217D-02 0.263D-02-0.456D-02-0.262D-01-0.555D-01-0.773D-01
 Coeff-Com:  0.640D-02 0.715D-01 0.542D+00 0.542D+00
 Coeff-En:   0.000D+00 0.000D+00 0.000D+00 0.000D+00 0.000D+00 0.000D+00
 Coeff-En:   0.000D+00 0.000D+00 0.000D+00 0.000D+00 0.000D+00 0.000D+00
 Coeff-En:   0.000D+00 0.000D+00 0.000D+00 0.100D+01
 Coeff:      0.113D-02-0.933D-05 0.974D-04-0.481D-04-0.129D-03 0.756D-03
 Coeff:     -0.216D-02 0.263D-02-0.455D-02-0.261D-01-0.553D-01-0.770D-01
 Coeff:      0.637D-02 0.712D-01 0.540D+00 0.543D+00
 Gap=     0.038 Goal=   None    Shift=    0.000
 RMSDP=8.62D-05 MaxDP=1.19D-03 DE=-3.19D-05 OVMax= 6.62D-03

 Cycle  21  Pass 1  IDiag  1:
 E= -230.585651378821     Delta-E=       -0.000016248921 Rises=F Damp=F
 DIIS: error= 3.02D-04 at cycle  17 NSaved=  17.
 NSaved=17 IEnMin=17 EnMin= -230.585651378821     IErMin=17 ErrMin= 3.02D-04
 ErrMax= 3.02D-04  0.00D+00 EMaxC= 1.00D-01 BMatC= 9.29D-06 BMatP= 9.88D-06
 IDIUse=3 WtCom= 9.97D-01 WtEn= 3.02D-03
 Coeff-Com:  0.733D-03 0.134D-03 0.302D-04-0.270D-04-0.155D-03 0.694D-03
 Coeff-Com: -0.171D-02 0.121D-02-0.133D-02-0.150D-01-0.502D-01-0.308D-01
 Coeff-Com:  0.128D+00-0.969D-01 0.866D-01 0.168D+00 0.810D+00
 Coeff-En:   0.000D+00 0.000D+00 0.000D+00 0.000D+00 0.000D+00 0.000D+00
 Coeff-En:   0.000D+00 0.000D+00 0.000D+00 0.000D+00 0.000D+00 0.000D+00
 Coeff-En:   0.000D+00 0.000D+00 0.000D+00 0.000D+00 0.100D+01
 Coeff:      0.731D-03 0.133D-03 0.301D-04-0.269D-04-0.155D-03 0.692D-03
 Coeff:     -0.171D-02 0.121D-02-0.133D-02-0.150D-01-0.500D-01-0.307D-01
 Coeff:      0.128D+00-0.966D-01 0.864D-01 0.167D+00 0.811D+00
 Gap=     0.037 Goal=   None    Shift=    0.000
 RMSDP=7.49D-05 MaxDP=1.03D-03 DE=-1.62D-05 OVMax= 5.76D-03

 Cycle  22  Pass 1  IDiag  1:
 E= -230.585665610274     Delta-E=       -0.000014231453 Rises=F Damp=F
 DIIS: error= 2.51D-04 at cycle  18 NSaved=  18.
 NSaved=18 IEnMin=18 EnMin= -230.585665610274     IErMin=18 ErrMin= 2.51D-04
 ErrMax= 2.51D-04  0.00D+00 EMaxC= 1.00D-01 BMatC= 5.71D-06 BMatP= 9.29D-06
 IDIUse=3 WtCom= 9.97D-01 WtEn= 2.51D-03
 Coeff-Com:  0.227D-03 0.114D-03 0.687D-04 0.220D-04 0.797D-04 0.230D-03
 Coeff-Com: -0.410D-03-0.144D-03 0.935D-03-0.880D-02-0.319D-01 0.206D-01
 Coeff-Com:  0.254D+00-0.426D-01-0.263D+00-0.646D+00 0.270D+00 0.145D+01
 Coeff-En:   0.000D+00 0.000D+00 0.000D+00 0.000D+00 0.000D+00 0.000D+00
 Coeff-En:   0.000D+00 0.000D+00 0.000D+00 0.000D+00 0.000D+00 0.000D+00
 Coeff-En:   0.000D+00 0.000D+00 0.000D+00 0.000D+00 0.000D+00 0.100D+01
 Coeff:      0.227D-03 0.114D-03 0.686D-04 0.220D-04 0.795D-04 0.229D-03
 Coeff:     -0.409D-03-0.143D-03 0.933D-03-0.877D-02-0.318D-01 0.206D-01
 Coeff:      0.253D+00-0.425D-01-0.262D+00-0.644D+00 0.269D+00 0.144D+01
 Gap=     0.037 Goal=   None    Shift=    0.000
 RMSDP=1.11D-04 MaxDP=1.54D-03 DE=-1.42D-05 OVMax= 8.88D-03

 Cycle  23  Pass 1  IDiag  1:
 E= -230.585682209266     Delta-E=       -0.000016598992 Rises=F Damp=F
 DIIS: error= 9.96D-05 at cycle  19 NSaved=  19.
 NSaved=19 IEnMin=19 EnMin= -230.585682209266     IErMin=19 ErrMin= 9.96D-05
 ErrMax= 9.96D-05  0.00D+00 EMaxC= 1.00D-01 BMatC= 9.66D-07 BMatP= 5.71D-06
 IDIUse=1 WtCom= 1.00D+00 WtEn= 0.00D+00
 Coeff-Com:  0.855D-04 0.144D-03 0.191D-04-0.252D-05 0.276D-04 0.392D-04
 Coeff-Com: -0.105D-03 0.191D-04-0.289D-03-0.428D-02 0.137D-02 0.849D-02
 Coeff-Com:  0.940D-01 0.392D-01-0.106D+00-0.356D+00-0.553D+00 0.535D+00
 Coeff-Com:  0.134D+01
 Coeff:      0.855D-04 0.144D-03 0.191D-04-0.252D-05 0.276D-04 0.392D-04
 Coeff:     -0.105D-03 0.191D-04-0.289D-03-0.428D-02 0.137D-02 0.849D-02
 Coeff:      0.940D-01 0.392D-01-0.106D+00-0.356D+00-0.553D+00 0.535D+00
 Coeff:      0.134D+01
 Gap=     0.037 Goal=   None    Shift=    0.000
 RMSDP=1.22D-04 MaxDP=1.65D-03 DE=-1.66D-05 OVMax= 1.03D-02

 Cycle  24  Pass 1  IDiag  1:
 E= -230.585689319196     Delta-E=       -0.000007109930 Rises=F Damp=F
 DIIS: error= 3.68D-05 at cycle  20 NSaved=  20.
 NSaved=20 IEnMin=20 EnMin= -230.585689319196     IErMin=20 ErrMin= 3.68D-05
 ErrMax= 3.68D-05  0.00D+00 EMaxC= 1.00D-01 BMatC= 1.35D-07 BMatP= 9.66D-07
 IDIUse=1 WtCom= 1.00D+00 WtEn= 0.00D+00
 Coeff-Com:  0.622D-04 0.819D-04 0.762D-06-0.531D-05 0.329D-04-0.116D-03
 Coeff-Com: -0.317D-03 0.306D-03-0.329D-03-0.137D-02 0.214D-02-0.866D-03
 Coeff-Com:  0.208D-01 0.212D-01-0.331D-01-0.644D-01-0.213D+00 0.897D-01
 Coeff-Com:  0.242D+00 0.937D+00
 Coeff:      0.622D-04 0.819D-04 0.762D-06-0.531D-05 0.329D-04-0.116D-03
 Coeff:     -0.317D-03 0.306D-03-0.329D-03-0.137D-02 0.214D-02-0.866D-03
 Coeff:      0.208D-01 0.212D-01-0.331D-01-0.644D-01-0.213D+00 0.897D-01
 Coeff:      0.242D+00 0.937D+00
 Gap=     0.037 Goal=   None    Shift=    0.000
 RMSDP=4.25D-05 MaxDP=5.21D-04 DE=-7.11D-06 OVMax= 3.81D-03

 Cycle  25  Pass 1  IDiag  1:
 E= -230.585690492691     Delta-E=       -0.000001173495 Rises=F Damp=F
 DIIS: error= 3.06D-05 at cycle  21 NSaved=  20.
 NSaved=20 IEnMin=20 EnMin= -230.585690492691     IErMin=20 ErrMin= 3.06D-05
 ErrMax= 3.06D-05  0.00D+00 EMaxC= 1.00D-01 BMatC= 8.09D-08 BMatP= 1.35D-07
 IDIUse=1 WtCom= 1.00D+00 WtEn= 0.00D+00
 Coeff-Com:  0.234D-04 0.837D-05-0.177D-05 0.384D-04-0.781D-04-0.259D-03
 Coeff-Com:  0.325D-03-0.524D-04 0.314D-03-0.470D-02-0.485D-02-0.152D-03
 Coeff-Com: -0.811D-02-0.193D-02 0.681D-01 0.174D+00-0.451D-01-0.552D+00
 Coeff-Com: -0.170D+00 0.154D+01
 Coeff:      0.234D-04 0.837D-05-0.177D-05 0.384D-04-0.781D-04-0.259D-03
 Coeff:      0.325D-03-0.524D-04 0.314D-03-0.470D-02-0.485D-02-0.152D-03
 Coeff:     -0.811D-02-0.193D-02 0.681D-01 0.174D+00-0.451D-01-0.552D+00
 Coeff:     -0.170D+00 0.154D+01
 Gap=     0.037 Goal=   None    Shift=    0.000
 RMSDP=4.17D-05 MaxDP=4.53D-04 DE=-1.17D-06 OVMax= 3.79D-03

 Cycle  26  Pass 1  IDiag  1:
 E= -230.585691272107     Delta-E=       -0.000000779416 Rises=F Damp=F
 DIIS: error= 1.91D-05 at cycle  22 NSaved=  20.
 NSaved=20 IEnMin=20 EnMin= -230.585691272107     IErMin=20 ErrMin= 1.91D-05
 ErrMax= 1.91D-05  0.00D+00 EMaxC= 1.00D-01 BMatC= 3.09D-08 BMatP= 8.09D-08
 IDIUse=1 WtCom= 1.00D+00 WtEn= 0.00D+00
 Coeff-Com:  0.596D-05 0.588D-04-0.163D-04 0.752D-05-0.315D-04 0.167D-04
 Coeff-Com:  0.138D-05-0.174D-04-0.286D-02 0.124D-02 0.110D-01-0.318D-02
 Coeff-Com:  0.517D-02 0.854D-02 0.375D-01 0.475D-01-0.127D+00-0.563D+00
 Coeff-Com:  0.179D+00 0.141D+01
 Coeff:      0.596D-05 0.588D-04-0.163D-04 0.752D-05-0.315D-04 0.167D-04
 Coeff:      0.138D-05-0.174D-04-0.286D-02 0.124D-02 0.110D-01-0.318D-02
 Coeff:      0.517D-02 0.854D-02 0.375D-01 0.475D-01-0.127D+00-0.563D+00
 Coeff:      0.179D+00 0.141D+01
 Gap=     0.037 Goal=   None    Shift=    0.000
 RMSDP=2.89D-05 MaxDP=2.48D-04 DE=-7.79D-07 OVMax= 2.60D-03

 Cycle  27  Pass 1  IDiag  1:
 E= -230.585691546783     Delta-E=       -0.000000274676 Rises=F Damp=F
 DIIS: error= 1.19D-05 at cycle  23 NSaved=  20.
 NSaved=20 IEnMin=20 EnMin= -230.585691546783     IErMin=20 ErrMin= 1.19D-05
 ErrMax= 1.19D-05  0.00D+00 EMaxC= 1.00D-01 BMatC= 1.52D-08 BMatP= 3.09D-08
 IDIUse=1 WtCom= 1.00D+00 WtEn= 0.00D+00
 Coeff-Com:  0.384D-04-0.150D-04 0.302D-05-0.717D-04-0.108D-04 0.369D-04
 Coeff-Com: -0.286D-03-0.210D-03 0.292D-02 0.146D-01 0.441D-02-0.160D-01
 Coeff-Com: -0.283D-01-0.572D-01 0.592D-01 0.999D-01-0.538D-01-0.211D+00
 Coeff-Com:  0.168D+00 0.102D+01
 Coeff:      0.384D-04-0.150D-04 0.302D-05-0.717D-04-0.108D-04 0.369D-04
 Coeff:     -0.286D-03-0.210D-03 0.292D-02 0.146D-01 0.441D-02-0.160D-01
 Coeff:     -0.283D-01-0.572D-01 0.592D-01 0.999D-01-0.538D-01-0.211D+00
 Coeff:      0.168D+00 0.102D+01
 Gap=     0.037 Goal=   None    Shift=    0.000
 RMSDP=5.65D-06 MaxDP=6.95D-05 DE=-2.75D-07 OVMax= 4.55D-04

 Cycle  28  Pass 1  IDiag  1:
 E= -230.585691585278     Delta-E=       -0.000000038496 Rises=F Damp=F
 DIIS: error= 7.27D-06 at cycle  24 NSaved=  20.
 NSaved=20 IEnMin=20 EnMin= -230.585691585278     IErMin=20 ErrMin= 7.27D-06
 ErrMax= 7.27D-06  0.00D+00 EMaxC= 1.00D-01 BMatC= 5.74D-09 BMatP= 1.52D-08
 IDIUse=1 WtCom= 1.00D+00 WtEn= 0.00D+00
 Coeff-Com:  0.230D-04-0.122D-04-0.824D-04 0.105D-04 0.368D-04-0.191D-03
 Coeff-Com:  0.309D-03 0.152D-02 0.624D-02 0.355D-02-0.173D-01-0.115D-01
 Coeff-Com: -0.190D-01 0.150D-01 0.127D-01 0.128D+00 0.722D-01-0.432D+00
 Coeff-Com: -0.262D+00 0.150D+01
 Coeff:      0.230D-04-0.122D-04-0.824D-04 0.105D-04 0.368D-04-0.191D-03
 Coeff:      0.309D-03 0.152D-02 0.624D-02 0.355D-02-0.173D-01-0.115D-01
 Coeff:     -0.190D-01 0.150D-01 0.127D-01 0.128D+00 0.722D-01-0.432D+00
 Coeff:     -0.262D+00 0.150D+01
 Gap=     0.037 Goal=   None    Shift=    0.000
 RMSDP=3.71D-06 MaxDP=6.42D-05 DE=-3.85D-08 OVMax= 2.66D-04

 Cycle  29  Pass 1  IDiag  1:
 E= -230.585691603515     Delta-E=       -0.000000018237 Rises=F Damp=F
 DIIS: error= 1.99D-06 at cycle  25 NSaved=  20.
 NSaved=20 IEnMin=20 EnMin= -230.585691603515     IErMin=20 ErrMin= 1.99D-06
 ErrMax= 1.99D-06  0.00D+00 EMaxC= 1.00D-01 BMatC= 5.44D-10 BMatP= 5.74D-09
 IDIUse=1 WtCom= 1.00D+00 WtEn= 0.00D+00
 Coeff-Com: -0.729D-05-0.522D-05 0.204D-05 0.172D-05-0.152D-04-0.197D-03
 Coeff-Com: -0.282D-03-0.816D-03-0.153D-02-0.126D-02 0.462D-02 0.760D-02
 Coeff-Com:  0.522D-03-0.163D-01-0.325D-02 0.572D-01-0.567D-01-0.433D+00
 Coeff-Com:  0.153D+00 0.129D+01
 Coeff:     -0.729D-05-0.522D-05 0.204D-05 0.172D-05-0.152D-04-0.197D-03
 Coeff:     -0.282D-03-0.816D-03-0.153D-02-0.126D-02 0.462D-02 0.760D-02
 Coeff:      0.522D-03-0.163D-01-0.325D-02 0.572D-01-0.567D-01-0.433D+00
 Coeff:      0.153D+00 0.129D+01
 Gap=     0.037 Goal=   None    Shift=    0.000
 RMSDP=3.11D-06 MaxDP=4.72D-05 DE=-1.82D-08 OVMax= 2.35D-04

 Cycle  30  Pass 1  IDiag  1:
 E= -230.585691608105     Delta-E=       -0.000000004590 Rises=F Damp=F
 DIIS: error= 1.57D-06 at cycle  26 NSaved=  20.
 NSaved=20 IEnMin=20 EnMin= -230.585691608105     IErMin=20 ErrMin= 1.57D-06
 ErrMax= 1.57D-06  0.00D+00 EMaxC= 1.00D-01 BMatC= 2.04D-10 BMatP= 5.44D-10
 IDIUse=1 WtCom= 1.00D+00 WtEn= 0.00D+00
 Coeff-Com:  0.740D-05-0.295D-05-0.985D-05-0.149D-04-0.680D-04-0.295D-03
 Coeff-Com: -0.693D-03 0.447D-04 0.546D-03 0.255D-02 0.523D-03-0.488D-02
 Coeff-Com:  0.937D-04 0.116D-01 0.326D-02-0.302D-01-0.780D-01 0.479D-02
 Coeff-Com:  0.213D+00 0.878D+00
 Coeff:      0.740D-05-0.295D-05-0.985D-05-0.149D-04-0.680D-04-0.295D-03
 Coeff:     -0.693D-03 0.447D-04 0.546D-03 0.255D-02 0.523D-03-0.488D-02
 Coeff:      0.937D-04 0.116D-01 0.326D-02-0.302D-01-0.780D-01 0.479D-02
 Coeff:      0.213D+00 0.878D+00
 Gap=     0.037 Goal=   None    Shift=    0.000
 RMSDP=6.70D-07 MaxDP=1.02D-05 DE=-4.59D-09 OVMax= 5.42D-05

 Cycle  31  Pass 1  IDiag  1:
 E= -230.585691608680     Delta-E=       -0.000000000575 Rises=F Damp=F
 DIIS: error= 6.19D-07 at cycle  27 NSaved=  20.
 NSaved=20 IEnMin=20 EnMin= -230.585691608680     IErMin=20 ErrMin= 6.19D-07
 ErrMax= 6.19D-07  0.00D+00 EMaxC= 1.00D-01 BMatC= 4.60D-11 BMatP= 2.04D-10
 IDIUse=1 WtCom= 1.00D+00 WtEn= 0.00D+00
 Coeff-Com:  0.140D-05-0.165D-05-0.105D-04 0.383D-04-0.769D-04 0.880D-04
 Coeff-Com:  0.438D-03-0.647D-03-0.122D-02-0.310D-02-0.233D-02 0.101D-01
 Coeff-Com:  0.185D-01-0.234D-01-0.325D-01 0.117D+00 0.594D-01-0.413D+00
 Coeff-Com: -0.957D-01 0.137D+01
 Coeff:      0.140D-05-0.165D-05-0.105D-04 0.383D-04-0.769D-04 0.880D-04
 Coeff:      0.438D-03-0.647D-03-0.122D-02-0.310D-02-0.233D-02 0.101D-01
 Coeff:      0.185D-01-0.234D-01-0.325D-01 0.117D+00 0.594D-01-0.413D+00
 Coeff:     -0.957D-01 0.137D+01
 Gap=     0.037 Goal=   None    Shift=    0.000
 RMSDP=8.77D-07 MaxDP=9.48D-06 DE=-5.75D-10 OVMax= 7.72D-05

 Cycle  32  Pass 1  IDiag  1:
 E= -230.585691608936     Delta-E=       -0.000000000256 Rises=F Damp=F
 DIIS: error= 1.32D-07 at cycle  28 NSaved=  20.
 NSaved=20 IEnMin=20 EnMin= -230.585691608936     IErMin=20 ErrMin= 1.32D-07
 ErrMax= 1.32D-07  0.00D+00 EMaxC= 1.00D-01 BMatC= 1.88D-12 BMatP= 4.60D-11
 IDIUse=1 WtCom= 1.00D+00 WtEn= 0.00D+00
 Coeff-Com:  0.869D-06 0.208D-05 0.107D-04 0.504D-04 0.506D-04 0.623D-04
 Coeff-Com: -0.192D-03 0.530D-04 0.190D-03 0.398D-03-0.135D-02-0.475D-03
 Coeff-Com:  0.558D-02-0.216D-02 0.409D-02-0.649D-02-0.128D-01-0.134D+00
 Coeff-Com: -0.108D+00 0.125D+01
 Coeff:      0.869D-06 0.208D-05 0.107D-04 0.504D-04 0.506D-04 0.623D-04
 Coeff:     -0.192D-03 0.530D-04 0.190D-03 0.398D-03-0.135D-02-0.475D-03
 Coeff:      0.558D-02-0.216D-02 0.409D-02-0.649D-02-0.128D-01-0.134D+00
 Coeff:     -0.108D+00 0.125D+01
 Gap=     0.037 Goal=   None    Shift=    0.000
 RMSDP=1.99D-07 MaxDP=3.16D-06 DE=-2.56D-10 OVMax= 1.74D-05

 Cycle  33  Pass 1  IDiag  1:
 E= -230.585691608957     Delta-E=       -0.000000000021 Rises=F Damp=F
 DIIS: error= 1.74D-07 at cycle  29 NSaved=  20.
 NSaved=20 IEnMin=20 EnMin= -230.585691608957     IErMin=19 ErrMin= 1.32D-07
 ErrMax= 1.74D-07  0.00D+00 EMaxC= 1.00D-01 BMatC= 2.18D-12 BMatP= 1.88D-12
 IDIUse=1 WtCom= 1.00D+00 WtEn= 0.00D+00
 Coeff-Com: -0.789D-06-0.103D-04 0.197D-04 0.378D-04 0.623D-04 0.222D-04
 Coeff-Com:  0.120D-03 0.244D-03 0.326D-03-0.150D-02-0.211D-02 0.527D-02
 Coeff-Com:  0.180D-02-0.215D-01-0.511D-02 0.769D-01 0.547D-02-0.288D+00
 Coeff-Com:  0.106D+00 0.112D+01
 Coeff:     -0.789D-06-0.103D-04 0.197D-04 0.378D-04 0.623D-04 0.222D-04
 Coeff:      0.120D-03 0.244D-03 0.326D-03-0.150D-02-0.211D-02 0.527D-02
 Coeff:      0.180D-02-0.215D-01-0.511D-02 0.769D-01 0.547D-02-0.288D+00
 Coeff:      0.106D+00 0.112D+01
 Gap=     0.037 Goal=   None    Shift=    0.000
 RMSDP=6.38D-08 MaxDP=8.61D-07 DE=-2.14D-11 OVMax= 5.25D-06

 Cycle  34  Pass 1  IDiag  1:
 E= -230.585691608961     Delta-E=       -0.000000000003 Rises=F Damp=F
 DIIS: error= 6.65D-08 at cycle  30 NSaved=  20.
 NSaved=20 IEnMin=20 EnMin= -230.585691608961     IErMin=20 ErrMin= 6.65D-08
 ErrMax= 6.65D-08  0.00D+00 EMaxC= 1.00D-01 BMatC= 3.37D-13 BMatP= 1.88D-12
 IDIUse=1 WtCom= 1.00D+00 WtEn= 0.00D+00
 Coeff-Com: -0.291D-05-0.124D-04-0.104D-04 0.184D-05 0.825D-05-0.227D-04
 Coeff-Com: -0.371D-04-0.975D-04 0.223D-03 0.508D-03-0.601D-03-0.108D-02
 Coeff-Com: -0.216D-02 0.302D-02 0.702D-02 0.823D-02-0.693D-02-0.103D+00
 Coeff-Com:  0.364D-02 0.109D+01
 Coeff:     -0.291D-05-0.124D-04-0.104D-04 0.184D-05 0.825D-05-0.227D-04
 Coeff:     -0.371D-04-0.975D-04 0.223D-03 0.508D-03-0.601D-03-0.108D-02
 Coeff:     -0.216D-02 0.302D-02 0.702D-02 0.823D-02-0.693D-02-0.103D+00
 Coeff:      0.364D-02 0.109D+01
 Gap=     0.037 Goal=   None    Shift=    0.000
 RMSDP=3.01D-08 MaxDP=4.00D-07 DE=-3.30D-12 OVMax= 2.26D-06

 Cycle  35  Pass 1  IDiag  1:
 E= -230.585691608958     Delta-E=        0.000000000002 Rises=F Damp=F
 DIIS: error= 1.71D-08 at cycle  31 NSaved=  20.
 NSaved=20 IEnMin=19 EnMin= -230.585691608961     IErMin=20 ErrMin= 1.71D-08
 ErrMax= 1.71D-08  0.00D+00 EMaxC= 1.00D-01 BMatC= 4.28D-14 BMatP= 3.37D-13
 IDIUse=1 WtCom= 1.00D+00 WtEn= 0.00D+00
 Large coefficients: NSaved= 20 BigCof=    0.00 CofMax=   10.00 Det=-5.96D-15
 Inversion failed.  Reducing to 19 matrices.
 Large coefficients: NSaved= 19 BigCof=    0.00 CofMax=   10.00 Det=-7.81D-15
 Inversion failed.  Reducing to 18 matrices.
 Large coefficients: NSaved= 18 BigCof=    0.00 CofMax=   10.00 Det=-8.53D-15
 Inversion failed.  Reducing to 17 matrices.
 Large coefficients: NSaved= 17 BigCof=    0.00 CofMax=   10.00 Det=-9.03D-15
 Inversion failed.  Reducing to 16 matrices.
 Large coefficients: NSaved= 16 BigCof=    0.00 CofMax=   10.00 Det=-9.03D-15
 Inversion failed.  Reducing to 15 matrices.
 Coeff-Com:  0.429D-04 0.821D-04-0.598D-04-0.358D-03 0.489D-03 0.592D-03
 Coeff-Com: -0.256D-02-0.847D-03 0.932D-02-0.670D-02-0.214D-01 0.403D-01
 Coeff-Com: -0.232D-01 0.160D+00 0.845D+00
 Coeff:      0.429D-04 0.821D-04-0.598D-04-0.358D-03 0.489D-03 0.592D-03
 Coeff:     -0.256D-02-0.847D-03 0.932D-02-0.670D-02-0.214D-01 0.403D-01
 Coeff:     -0.232D-01 0.160D+00 0.845D+00
 Gap=     0.037 Goal=   None    Shift=    0.000
 RMSDP=2.62D-08 MaxDP=2.88D-07 DE= 2.33D-12 OVMax= 2.28D-06

 Cycle  36  Pass 1  IDiag  1:
 E= -230.585691608960     Delta-E=       -0.000000000001 Rises=F Damp=F
 DIIS: error= 1.65D-08 at cycle  32 NSaved=  16.
 NSaved=16 IEnMin=14 EnMin= -230.585691608961     IErMin=16 ErrMin= 1.65D-08
 ErrMax= 1.65D-08  0.00D+00 EMaxC= 1.00D-01 BMatC= 2.84D-14 BMatP= 4.28D-14
 IDIUse=1 WtCom= 1.00D+00 WtEn= 0.00D+00
 Large coefficients: NSaved= 16 BigCof=    0.00 CofMax=   10.00 Det=-8.62D-15
 Inversion failed.  Reducing to 15 matrices.
 Coeff-Com:  0.112D-04 0.112D-03-0.205D-03-0.513D-03 0.772D-03 0.217D-02
 Coeff-Com: -0.877D-03-0.317D-02-0.334D-02 0.131D-01-0.163D-02-0.901D-01
 Coeff-Com: -0.208D-01 0.691D+00 0.414D+00
 Coeff:      0.112D-04 0.112D-03-0.205D-03-0.513D-03 0.772D-03 0.217D-02
 Coeff:     -0.877D-03-0.317D-02-0.334D-02 0.131D-01-0.163D-02-0.901D-01
 Coeff:     -0.208D-01 0.691D+00 0.414D+00
 Gap=     0.037 Goal=   None    Shift=    0.000
 RMSDP=1.24D-08 MaxDP=1.52D-07 DE=-1.25D-12 OVMax= 9.47D-07

 Cycle  37  Pass 1  IDiag  1:
 E= -230.585691608960     Delta-E=       -0.000000000001 Rises=F Damp=F
 DIIS: error= 6.04D-09 at cycle  33 NSaved=  16.
 NSaved=16 IEnMin=13 EnMin= -230.585691608961     IErMin=16 ErrMin= 6.04D-09
 ErrMax= 6.04D-09  0.00D+00 EMaxC= 1.00D-01 BMatC= 3.32D-15 BMatP= 2.84D-14
 IDIUse=1 WtCom= 1.00D+00 WtEn= 0.00D+00
 Large coefficients: NSaved= 16 BigCof=    0.00 CofMax=   10.00 Det=-2.26D-15
 Inversion failed.  Reducing to 15 matrices.
 Coeff-Com:  0.910D-04-0.479D-04-0.356D-03 0.341D-03 0.183D-02-0.673D-03
 Coeff-Com: -0.483D-02-0.103D-02 0.139D-01 0.192D-02-0.369D-01-0.140D+00
 Coeff-Com:  0.117D+00 0.228D+00 0.821D+00
 Coeff:      0.910D-04-0.479D-04-0.356D-03 0.341D-03 0.183D-02-0.673D-03
 Coeff:     -0.483D-02-0.103D-02 0.139D-01 0.192D-02-0.369D-01-0.140D+00
 Coeff:      0.117D+00 0.228D+00 0.821D+00
 Gap=     0.037 Goal=   None    Shift=    0.000
 RMSDP=9.30D-09 MaxDP=1.09D-07 DE=-5.12D-13 OVMax= 7.98D-07

 SCF Done:  E(RB3LYP) =  -230.585691609     A.U. after   37 cycles
            NFock= 37  Conv=0.93D-08     -V/T= 2.0149
 KE= 2.272016008170D+02 PE=-8.343210025676D+02 EE= 2.252844665559D+02
 Leave Link  502 at Thu Mar 19 17:09:38 2026, MaxMem=   536870912 cpu:        24.0
 (Enter C:\G09W\l601.exe)
 Copying SCF densities to generalized density rwf, IOpCl= 0 IROHF=0.

 **********************************************************************

            Population analysis using the SCF density.

 **********************************************************************

 Orbital symmetries:
       Occupied  (A) (A) (A) (A) (A) (A) (A) (A) (A) (A) (A) (A)
                 (A) (A) (A) (A) (A) (A) (A) (A) (A)
       Virtual   (A) (A) (A) (A) (A) (A) (A) (A) (A) (A) (A) (A)
                 (A) (A) (A) (A) (A) (A) (A) (A) (A) (A) (A) (A)
                 (A) (A) (A) (A) (A) (A) (A) (A) (A) (A) (A) (A)
                 (A) (A) (A) (A) (A) (A) (A) (A) (A) (A) (A) (A)
                 (A) (A) (A) (A) (A) (A) (A) (A) (A) (A) (A) (A)
                 (A) (A) (A) (A) (A) (A) (A) (A) (A) (A) (A) (A)
                 (A) (A) (A) (A) (A) (A) (A) (A) (A)
 The electronic state is 1-A.
 Alpha  occ. eigenvalues --  -10.37644 -10.37418 -10.36422 -10.35102 -10.34964
 Alpha  occ. eigenvalues --  -10.34820  -0.77270  -0.64229  -0.63293  -0.57693
 Alpha  occ. eigenvalues --   -0.54669  -0.52957  -0.42458  -0.38191  -0.37471
 Alpha  occ. eigenvalues --   -0.31776  -0.30385  -0.27573  -0.25463  -0.23896
 Alpha  occ. eigenvalues --   -0.22237
 Alpha virt. eigenvalues --   -0.18519  -0.17170  -0.16822  -0.15733  -0.14308
 Alpha virt. eigenvalues --   -0.12939  -0.11002  -0.09234  -0.08471  -0.07644
 Alpha virt. eigenvalues --   -0.03996   0.00533   0.02942   0.07925   0.12425
 Alpha virt. eigenvalues --    0.44983   0.48425   0.49831   0.50425   0.51184
 Alpha virt. eigenvalues --    0.51964   0.53321   0.53843   0.54536   0.55932
 Alpha virt. eigenvalues --    0.57275   0.59184   0.61320   0.63030   0.63847
 Alpha virt. eigenvalues --    0.65618   0.67062   0.71082   0.72452   0.77567
 Alpha virt. eigenvalues --    0.81977   0.82628   0.84304   0.87854   0.89959
 Alpha virt. eigenvalues --    0.97829   1.02621   1.08121   1.24466   1.35045
 Alpha virt. eigenvalues --    1.51955   1.53784   1.57163   1.58468   1.62059
 Alpha virt. eigenvalues --    1.62933   1.63038   1.63551   1.63982   1.64384
 Alpha virt. eigenvalues --    1.64749   1.65614   1.66110   1.66654   1.67516
 Alpha virt. eigenvalues --    1.67852   1.68507   1.69147   1.70562   1.74351
 Alpha virt. eigenvalues --    1.78790   1.79093   1.85547   1.87760   1.89528
 Alpha virt. eigenvalues --    1.91464   1.94970   2.07068   2.08763   2.11575
 Alpha virt. eigenvalues --    3.85157   3.88241   3.91348   3.96406   4.02483
 Alpha virt. eigenvalues --    4.11375
          Condensed to atoms (all electrons):
               1          2          3          4          5          6
     1  C    5.779944  -0.003216   0.057824   0.019173  -0.038499  -0.001341
     2  C   -0.003216   5.750685   0.017291  -0.010502   0.000233   0.000807
     3  C    0.057824   0.017291   6.052644  -0.005932   0.073011   0.044160
     4  C    0.019173  -0.010502  -0.005932   6.051892   0.049553   0.056314
     5  C   -0.038499   0.000233   0.073011   0.049553   5.870243  -0.040053
     6  C   -0.001341   0.000807   0.044160   0.056314  -0.040053   5.761778
     7  H    0.001458   0.137989  -0.017237  -0.014467   0.004276   0.056523
     8  H    0.027151   0.134979  -0.003401   0.002209   0.004039   0.000394
     9  H    0.035079   0.000104  -0.013293  -0.005142   0.017875   0.000629
    10  H    0.073460  -0.000320   0.036361  -0.022732   0.012286   0.004114
    11  H    0.002999   0.000697   0.031880  -0.023633   0.029376   0.074396
    12  H    0.000833   0.000250  -0.013552   0.025903   0.025232   0.016118
               7          8          9         10         11         12
     1  C    0.001458   0.027151   0.035079   0.073460   0.002999   0.000833
     2  C    0.137989   0.134979   0.000104  -0.000320   0.000697   0.000250
     3  C   -0.017237  -0.003401  -0.013293   0.036361   0.031880  -0.013552
     4  C   -0.014467   0.002209  -0.005142  -0.022732  -0.023633   0.025903
     5  C    0.004276   0.004039   0.017875   0.012286   0.029376   0.025232
     6  C    0.056523   0.000394   0.000629   0.004114   0.074396   0.016118
     7  H    0.772694  -0.012204   0.000154  -0.002530  -0.021733   0.002663
     8  H   -0.012204   0.787674   0.000904  -0.015252   0.001937  -0.000144
     9  H    0.000154   0.000904   0.892677   0.067748   0.002136  -0.000308
    10  H   -0.002530  -0.015252   0.067748   0.798850  -0.030927   0.001454
    11  H   -0.021733   0.001937   0.002136  -0.030927   0.753198   0.055120
    12  H    0.002663  -0.000144  -0.000308   0.001454   0.055120   0.906373
 Mulliken charges:
               1
     1  C    0.045134
     2  C   -0.028998
     3  C   -0.259756
     4  C   -0.122636
     5  C   -0.007573
     6  C    0.026162
     7  H    0.092413
     8  H    0.071714
     9  H    0.001438
    10  H    0.077488
    11  H    0.124555
    12  H   -0.019942
 Sum of Mulliken charges =   0.00000
 Mulliken charges with hydrogens summed into heavy atoms:
               1
     1  C    0.122622
     2  C    0.063415
     3  C   -0.188042
     4  C   -0.142578
     5  C   -0.006134
     6  C    0.150718
 Electronic spatial extent (au):  <R**2>=            713.2931
 Charge=              0.0000 electrons
 Dipole moment (field-independent basis, Debye):
    X=              0.1432    Y=              0.1640    Z=              0.4627  Tot=              0.5113
 Quadrupole moment (field-independent basis, Debye-Ang):
   XX=            -45.4852   YY=            -42.9884   ZZ=            -46.5701
   XY=              1.0710   XZ=             -0.6841   YZ=              0.1428
 Traceless Quadrupole moment (field-independent basis, Debye-Ang):
   XX=             -0.4706   YY=              2.0262   ZZ=             -1.5556
   XY=              1.0710   XZ=             -0.6841   YZ=              0.1428
 Octapole moment (field-independent basis, Debye-Ang**2):
  XXX=             -0.3832  YYY=             -1.3199  ZZZ=             -1.1580  XYY=             -1.7298
  XXY=              4.2092  XXZ=              5.8113  XZZ=             -1.9242  YZZ=              1.0619
  YYZ=              1.3563  XYZ=             -0.1885
 Hexadecapole moment (field-independent basis, Debye-Ang**3):
 XXXX=           -580.7174 YYYY=           -482.9012 ZZZZ=           -167.0989 XXXY=              0.6548
 XXXZ=            -10.8984 YYYX=              5.3290 YYYZ=              3.7012 ZZZX=             -1.5326
 ZZZY=              1.2376 XXYY=           -176.2289 XXZZ=           -128.0245 YYZZ=           -107.3582
 XXYZ=              1.3585 YYXZ=             -0.6737 ZZXY=              2.7116
 N-N= 1.512492435857D+02 E-N=-8.343210027104D+02  KE= 2.272016008170D+02
 No NMR shielding tensors so no spin-rotation constants.
 Leave Link  601 at Thu Mar 19 17:09:39 2026, MaxMem=   536870912 cpu:         0.0
 (Enter C:\G09W\l701.exe)
 Compute integral first derivatives.
 ... and contract with generalized density number  0.
 Leave Link  701 at Thu Mar 19 17:09:39 2026, MaxMem=   536870912 cpu:         0.0
 (Enter C:\G09W\l702.exe)
 L702 exits ... SP integral derivatives will be done elsewhere.
 Leave Link  702 at Thu Mar 19 17:09:39 2026, MaxMem=   536870912 cpu:         0.0
 (Enter C:\G09W\l703.exe)
 Compute integral first derivatives, UseDBF=F ICtDFT=           0.
 Integral derivatives from FoFJK, PRISM(SPDF).
 Calling FoFJK, ICntrl=      2127 FMM=F ISym2X=0 I1Cent= 0 IOpClX= 0 NMat=1 NMatS=1 NMatT=0.
 FoFJK:  IHMeth= 1 ICntrl=    2127 DoSepK=F KAlg= 0 I1Cent=   0 FoldK=F
 IRaf=         0 NMat=   1 IRICut=       1 DoRegI=T DoRafI=F ISym2E= 0.
 FoFCou: FMM=F IPFlag=           0 FMFlag=      100000 FMFlg1=         800
         NFxFlg=           0 DoJE=F BraDBF=F KetDBF=F FulRan=T
         wScrn=  0.000000 ICntrl=    2127 IOpCl=  0 I1Cent=           0 NGrid=           0
         NMat0=    1 NMatS0=      1 NMatT0=    0 NMatD0=    1 NMtDS0=    0 NMtDT0=    0
 Symmetry not used in FoFCou.
 Leave Link  703 at Thu Mar 19 17:09:42 2026, MaxMem=   536870912 cpu:         2.0
 (Enter C:\G09W\l716.exe)
 Dipole        = 5.63277986D-02 6.45327570D-02 1.82024956D-01
 ***** Axes restored to original set *****
 -------------------------------------------------------------------
 Center     Atomic                   Forces (Hartrees/Bohr)
 Number     Number              X              Y              Z
 -------------------------------------------------------------------
      1        6          -0.011729088    0.070210525   -0.016164045
      2        6          -0.082361713   -0.009917217    0.008305005
      3        6          -0.049608854    0.000269243   -0.005603653
      4        6          -0.006075437    0.003955221   -0.049058551
      5        6           0.052285173    0.011510942    0.033970532
      6        6          -0.016673333   -0.081448148    0.027699847
      7        1           0.034475583   -0.001253458   -0.009057916
      8        1           0.019582207    0.029274753    0.011921736
      9        1           0.027117103    0.000384466   -0.013393185
     10        1           0.006091963   -0.016147528    0.012512777
     11        1           0.007824490    0.014509424    0.001673098
     12        1           0.019071905   -0.021348223   -0.002805646
 -------------------------------------------------------------------
 Cartesian Forces:  Max     0.082361713 RMS     0.030757223
 Leave Link  716 at Thu Mar 19 17:09:42 2026, MaxMem=   536870912 cpu:         0.0
 (Enter C:\G09W\l103.exe)

 GradGradGradGradGradGradGradGradGradGradGradGradGradGradGradGradGradGrad
 Berny optimization.
 FormGI is forming the generalized inverse of G from B-inverse, IUseBI=4.
 Internal  Forces:  Max     0.067006368 RMS     0.016147493
 Search for a local minimum.
 Step number   1 out of a maximum of  100
 All quantities printed in internal units (Hartrees-Bohrs-Radians)
 RMS Force = .16147D-01 SwitMx=.10000D-02 MixMth= 1
 Mixed Optimization -- RFO/linear search
 Second derivative matrix not updated -- first step.
 ITU=  0
     Eigenvalues ---    0.00704   0.01579   0.01778   0.02464   0.03502
     Eigenvalues ---    0.04291   0.04292   0.04384   0.04437   0.04640
     Eigenvalues ---    0.05095   0.05834   0.06236   0.06614   0.06947
     Eigenvalues ---    0.07419   0.07670   0.07740   0.07980   0.08090
     Eigenvalues ---    0.08648   0.08971   0.09234   0.09691   0.10081
     Eigenvalues ---    0.10678   0.11408   0.12225   0.13605   0.15798
 RFO step:  Lambda=-1.31771150D-01 EMin= 7.04323507D-03
 Linear search not attempted -- first point.
 Maximum step size (   0.300) exceeded in Quadratic search.
    -- Step size scaled by   0.401
 Iteration  1 RMS(Cart)=  0.03919193 RMS(Int)=  0.00061595
 Iteration  2 RMS(Cart)=  0.00057452 RMS(Int)=  0.00020643
 Iteration  3 RMS(Cart)=  0.00000054 RMS(Int)=  0.00020643
 ITry= 1 IFail=0 DXMaxC= 2.06D-01 DCOld= 1.00D+10 DXMaxT= 3.00D-01 DXLimC= 3.00D+00 Rises=F
 Variable       Old X    -DE/DX   Delta X   Delta X   Delta X     New X
                                 (Linear)    (Quad)   (Total)
    R1        3.00999  -0.06701   0.00000  -0.11990  -0.11990   2.89009
    R2        3.21210  -0.05149   0.00000  -0.09729  -0.09701   3.11510
    R3        3.35265  -0.04130   0.00000  -0.08478  -0.08451   3.26814
    R4        3.60129  -0.00857   0.00000  -0.01912  -0.01970   3.58158
    R5        3.28466  -0.00452   0.00000  -0.01311  -0.01334   3.27132
    R6        3.33567  -0.05192   0.00000  -0.10261  -0.10254   3.23313
    R7        3.24944  -0.02316   0.00000  -0.04972  -0.04996   3.19947
    R8        3.14051  -0.02468   0.00000  -0.05011  -0.05014   3.09036
    R9        3.13752  -0.03907   0.00000  -0.07450  -0.07465   3.06288
   R10        3.12192  -0.03103   0.00000  -0.05792  -0.05806   3.06386
   R11        3.11247  -0.03291   0.00000  -0.06050  -0.06033   3.05214
   R12        3.34726  -0.03762   0.00000  -0.07226  -0.07185   3.27541
   R13        3.05383  -0.04897   0.00000  -0.08898  -0.08874   2.96509
   R14        3.16320  -0.02909   0.00000  -0.06643  -0.06643   3.09677
   R15        3.18740  -0.02706   0.00000  -0.06211  -0.06211   3.12528
    A1        1.46919   0.01339   0.00000   0.02154   0.02167   1.49086
    A2        1.38437  -0.00791   0.00000  -0.01839  -0.01859   1.36578
    A3        1.83656  -0.00998   0.00000  -0.02038  -0.02043   1.81613
    A4        1.36573  -0.00081   0.00000   0.00049   0.00046   1.36619
    A5        1.61947  -0.00874   0.00000  -0.02072  -0.02095   1.59852
    A6        2.60889  -0.00942   0.00000  -0.01919  -0.01939   2.58950
    A7        1.28442   0.00181   0.00000   0.00646   0.00647   1.29090
    A8        1.35889  -0.00022   0.00000   0.00137   0.00132   1.36021
    A9        1.37022  -0.00006   0.00000   0.00000  -0.00012   1.37010
   A10        1.48422   0.01558   0.00000   0.02878   0.02928   1.51350
   A11        1.40216  -0.01009   0.00000  -0.01749  -0.01774   1.38442
   A12        2.14639  -0.00548   0.00000  -0.00894  -0.00927   2.13712
   A13        1.41667  -0.01104   0.00000  -0.02021  -0.02044   1.39623
   A14        1.45131  -0.01283   0.00000  -0.02038  -0.02059   1.43072
   A15        1.64152  -0.01251   0.00000  -0.02585  -0.02543   1.61609
   A16        2.05146  -0.00771   0.00000  -0.01293  -0.01295   2.03851
   A17        2.65705   0.00866   0.00000   0.01576   0.01532   2.67237
   A18        1.64308   0.00109   0.00000   0.00227   0.00200   1.64508
   A19        1.42550   0.00430   0.00000   0.00935   0.00937   1.43488
   A20        1.45387   0.00126   0.00000   0.00057   0.00074   1.45461
   A21        1.56246  -0.00320   0.00000  -0.00786  -0.00788   1.55458
   A22        1.60211   0.00452   0.00000   0.00981   0.00975   1.61185
   A23        1.58577   0.00626   0.00000   0.01449   0.01445   1.60022
   A24        1.45051   0.00032   0.00000   0.00155   0.00153   1.45204
   A25        1.48155  -0.00639   0.00000  -0.01378  -0.01377   1.46777
   A26        1.60040  -0.00318   0.00000  -0.00558  -0.00575   1.59465
   A27        2.84173  -0.00710   0.00000  -0.01352  -0.01356   2.82817
   A28        1.56640   0.00202   0.00000   0.00079   0.00085   1.56725
   A29        1.74944  -0.01383   0.00000  -0.02788  -0.02800   1.72144
   A30        1.39193  -0.00755   0.00000  -0.01530  -0.01531   1.37662
   A31        1.67833   0.00518   0.00000   0.01063   0.01046   1.68879
   A32        1.57414   0.00191   0.00000   0.00260   0.00250   1.57665
   A33        3.28460  -0.01142   0.00000  -0.02358  -0.02344   3.26117
   A34        3.08195  -0.00957   0.00000  -0.01936  -0.01952   3.06243
   A35        3.08773   0.00319   0.00000   0.00801   0.00824   3.09596
   A36        2.95883   0.01077   0.00000   0.02508   0.02514   2.98396
    D1       -0.70207  -0.01393   0.00000  -0.02699  -0.02736  -0.72942
    D2       -1.97224   0.00519   0.00000   0.00772   0.00761  -1.96463
    D3        0.77963   0.01511   0.00000   0.02971   0.03010   0.80974
    D4        0.73061   0.00751   0.00000   0.01458   0.01424   0.74485
    D5        2.92659   0.00842   0.00000   0.01710   0.01724   2.94383
    D6        2.30138  -0.00197   0.00000  -0.00840  -0.00861   2.29277
    D7       -1.78583  -0.00106   0.00000  -0.00589  -0.00561  -1.79144
    D8       -2.77460   0.00295   0.00000   0.00544   0.00507  -2.76952
    D9       -0.57862   0.00386   0.00000   0.00796   0.00807  -0.57055
   D10       -0.68776  -0.00369   0.00000  -0.00883  -0.00831  -0.69608
   D11       -2.51993   0.00487   0.00000   0.00814   0.00822  -2.51172
   D12       -1.44323   0.00022   0.00000  -0.00088  -0.00054  -1.44377
   D13       -1.58893   0.01509   0.00000   0.03314   0.03303  -1.55590
   D14        0.45772   0.00892   0.00000   0.02343   0.02317   0.48089
   D15        2.03722   0.00497   0.00000   0.01423   0.01395   2.05117
   D16       -0.19816   0.00455   0.00000   0.00853   0.00863  -0.18953
   D17        1.84849  -0.00161   0.00000  -0.00118  -0.00123   1.84726
   D18       -2.85520  -0.00557   0.00000  -0.01038  -0.01044  -2.86564
   D19       -2.85487   0.01137   0.00000   0.02212   0.02230  -2.83257
   D20       -0.80822   0.00520   0.00000   0.01241   0.01244  -0.79578
   D21        0.77128   0.00125   0.00000   0.00321   0.00323   0.77450
   D22       -1.11295   0.01141   0.00000   0.02157   0.02151  -1.09144
   D23       -2.69011   0.00862   0.00000   0.01924   0.01913  -2.67099
   D24        0.63425  -0.00215   0.00000  -0.00584  -0.00601   0.62824
   D25       -1.04387   0.00440   0.00000   0.00859   0.00858  -1.03529
   D26       -0.35398   0.00621   0.00000   0.01019   0.01016  -0.34383
   D27       -1.93115   0.00343   0.00000   0.00785   0.00778  -1.92337
   D28        1.39321  -0.00734   0.00000  -0.01723  -0.01736   1.37585
   D29       -0.28491  -0.00080   0.00000  -0.00280  -0.00277  -0.28768
   D30        0.80572   0.00022   0.00000  -0.00301  -0.00302   0.80271
   D31       -0.77144  -0.00256   0.00000  -0.00534  -0.00540  -0.77684
   D32        2.55292  -0.01333   0.00000  -0.03042  -0.03054   2.52238
   D33        0.87480  -0.00679   0.00000  -0.01599  -0.01595   0.85885
   D34        2.40040  -0.00986   0.00000  -0.02461  -0.02413   2.37627
   D35        0.82536   0.00102   0.00000  -0.00195  -0.00200   0.82336
   D36       -0.62849  -0.00076   0.00000  -0.00376  -0.00389  -0.63238
   D37       -2.21401  -0.00689   0.00000  -0.01794  -0.01796  -2.23197
   D38       -0.85075   0.00788   0.00000   0.01834   0.01839  -0.83236
   D39        0.63068   0.00120   0.00000   0.00438   0.00443   0.63511
   D40       -2.43002   0.00942   0.00000   0.02044   0.02068  -2.40934
   D41        2.31157   0.00628   0.00000   0.01541   0.01530   2.32687
   D42       -2.29323   0.02147   0.00000   0.04927   0.04980  -2.24343
   D43       -0.79287  -0.00535   0.00000  -0.00949  -0.00952  -0.80239
   D44        0.63261  -0.00064   0.00000   0.00086   0.00083   0.63345
   D45        2.23460   0.00378   0.00000   0.01044   0.01024   2.24485
   D46        0.81713  -0.00261   0.00000  -0.00513  -0.00532   0.81181
   D47       -0.63329  -0.00271   0.00000  -0.00652  -0.00667  -0.63996
   D48       -2.02369   0.00479   0.00000   0.00903   0.00891  -2.01478
   D49        1.87141  -0.01760   0.00000  -0.03381  -0.03391   1.83750
   D50        0.60876   0.00103   0.00000  -0.00052  -0.00034   0.60842
   D51       -0.67709  -0.00355   0.00000  -0.00478  -0.00483  -0.68192
   D52        0.77679  -0.00391   0.00000  -0.00444  -0.00443   0.77236
   D53        2.16641  -0.01083   0.00000  -0.01869  -0.01878   2.14763
         Item               Value     Threshold  Converged?
 Maximum Force            0.067006     0.000450     NO 
 RMS     Force            0.016147     0.000300     NO 
 Maximum Displacement     0.206163     0.001800     NO 
 RMS     Displacement     0.039110     0.001200     NO 
 Predicted change in Energy=-4.909341D-02
 Lowest energy point so far.  Saving SCF results.
 GradGradGradGradGradGradGradGradGradGradGradGradGradGradGradGradGradGrad

 Leave Link  103 at Thu Mar 19 17:09:42 2026, MaxMem=   536870912 cpu:         0.0
 (Enter C:\G09W\l202.exe)
                          Input orientation:                          
 ---------------------------------------------------------------------
 Center     Atomic      Atomic             Coordinates (Angstroms)
 Number     Number       Type             X           Y           Z
 ---------------------------------------------------------------------
      1          6           0        0.126265   -2.148701    0.513100
      2          6           0        2.732185    0.010713   -0.194151
      3          6           0        0.563658   -0.259727   -0.807348
      4          6           0       -0.568178    0.418787    0.953866
      5          6           0       -1.642792   -0.142209   -0.981998
      6          6           0        0.585855    2.043127   -0.417990
      7          1           0        1.459280    0.829654    0.458845
      8          1           0        1.698519   -1.374027   -0.123860
      9          1           0       -2.041914   -1.427137    0.931155
     10          1           0       -0.724404   -0.954115    0.079163
     11          1           0       -0.561017    0.982556   -0.565714
     12          1           0       -1.627456    2.021080    0.154931
 ---------------------------------------------------------------------
                    Distance matrix (angstroms):
                    1          2          3          4          5
     1  C    0.000000
     2  C    3.457469   0.000000
     3  C    2.345872   2.269726   0.000000
     4  C    2.696019   3.518076   2.200751   0.000000
     5  C    3.064456   4.447978   2.216469   2.284093   0.000000
     6  C    4.318515   2.964378   2.335643   2.419145   3.171855
     7  H    3.263506   1.648439   1.895292   2.127074   3.555755
     8  H    1.864892   1.729425   1.731106   3.084410   3.663077
     9  H    2.323020   5.111335   3.342790   2.362170   2.338908
    10  H    1.529370   3.599111   1.710901   1.635350   1.621324
    11  H    3.382450   3.453653   1.693089   1.620806   1.615124
    12  H    4.537719   4.813512   3.305910   2.080315   2.443903
                    6          7          8          9         10
     6  C    0.000000
     7  H    1.733271   0.000000
     8  H    3.605756   2.291940   0.000000
     9  H    4.557202   4.192200   3.886736   0.000000
    10  H    3.308686   2.845078   2.467407   1.638741   0.000000
    11  H    1.569060   2.270397   3.294575   3.200046   2.047745
    12  H    2.286366   3.322620   4.760944   3.558722   3.110150
                   11         12
    11  H    0.000000
    12  H    1.653830   0.000000
 Stoichiometry    C6H6
 Framework group  C1[X(C6H6)]
 Deg. of freedom    30
 Full point group                 C1      NOp   1
 RotChk:  IX=0 Diff= 1.21D-01
 Largest Abelian subgroup         C1      NOp   1
 Largest concise Abelian subgroup C1      NOp   1
                         Standard orientation:                         
 ---------------------------------------------------------------------
 Center     Atomic      Atomic             Coordinates (Angstroms)
 Number     Number       Type             X           Y           Z
 ---------------------------------------------------------------------
      1          6           0        0.712778    2.099472    0.242403
      2          6           0       -2.425270    0.680452   -0.062768
      3          6           0       -0.304115    0.220766   -0.726881
[...]
   D41        2.24246  -0.00016  -0.00134  -0.02809  -0.00208   2.24038
   D42       -1.49681  -0.00618  -0.00113  -0.02906  -0.00259  -1.49941
   D43       -1.26539  -0.00091  -0.00166  -0.06693  -0.00456  -1.26995
   D44        0.43884  -0.00623  -0.00193  -0.06613  -0.00334   0.43549
   D45        2.99027   0.00787  -0.00012   0.00504  -0.00074   2.98952
   D46        1.23983  -0.00088   0.00155   0.05852   0.00460   1.24443
   D47       -0.60292   0.00745   0.00283   0.08673   0.00479  -0.59813
   D48       -1.10013   0.00211   0.00189   0.06049   0.00368  -1.09645
   D49        0.48394   0.00312  -0.00023  -0.01997   0.00637   0.49031
   D50       -0.09977  -0.00748  -0.00294  -0.11182  -0.00156  -0.10133
   D51        0.09777   0.00725   0.00283   0.10822   0.00149   0.09927
   D52        1.66928  -0.00324   0.00267   0.08225   0.00047   1.66974
   D53        2.13429   0.00518   0.00227   0.07643  -0.00024   2.13404
         Item               Value     Threshold  Converged?
 Maximum Force            0.036909     0.000450     NO 
 RMS     Force            0.007901     0.000300     NO 
 Maximum Displacement     0.008254     0.001800     NO 
 RMS     Displacement     0.001928     0.001200     NO 
 Predicted change in Energy=-9.120599D-04
 Lowest energy point so far.  Saving SCF results.
 GradGradGradGradGradGradGradGradGradGradGradGradGradGradGradGradGradGrad

 Leave Link  103 at Thu Mar 19 17:16:25 2026, MaxMem=   536870912 cpu:         0.0
 (Enter C:\G09W\l202.exe)
                          Input orientation:                          
 ---------------------------------------------------------------------
 Center     Atomic      Atomic             Coordinates (Angstroms)
 Number     Number       Type             X           Y           Z
 ---------------------------------------------------------------------
      1          6           0        0.983685   -1.818099   -0.080511
      2          6           0        1.381147    0.636872   -0.258249
      3          6           0        0.424736   -0.739204   -0.408238
      4          6           0       -0.971490    1.192750   -0.024115
      5          6           0       -0.967465   -0.362448    0.182285
      6          6           0        0.482245    1.571491   -0.138483
      7          1           0        2.186747    0.717454    0.494200
      8          1           0        1.879891   -2.377066    0.159485
      9          1           0       -1.870550   -0.750638   -0.359066
     10          1           0       -0.638598   -0.985284    0.967818
     11          1           0       -1.209864    1.100635   -1.045971
     12          1           0       -1.680484    1.813538    0.510844
 ---------------------------------------------------------------------
                    Distance matrix (angstroms):
                    1          2          3          4          5
     1  C    0.000000
     2  C    2.493281   0.000000
     3  C    1.258508   1.682499   0.000000
     4  C    3.590418   2.428728   2.414424   0.000000
     5  C    2.448462   2.590114   1.558488   1.568840   0.000000
     6  C    3.426970   1.302260   2.327098   1.506609   2.438170
     7  H    2.864731   1.105290   2.457830   3.235586   3.348512
     8  H    1.083156   3.083354   2.263267   4.572490   3.488071
     9  H    3.060020   3.536789   2.295841   2.167315   1.122192
    10  H    2.103420   2.866008   1.756350   2.416315   1.055053
    11  H    3.776609   2.747529   2.542366   1.053326   1.925612
    12  H    4.542718   3.368922   3.434116   1.083620   2.313280
                    6          7          8          9         10
     6  C    0.000000
     7  H    2.008730   0.000000
     8  H    4.199203   3.127659   0.000000
     9  H    3.313093   4.398297   4.120676   0.000000
    10  H    3.002880   3.332598   2.988854   1.825755   0.000000
    11  H    1.976985   3.749122   4.805633   2.082199   2.955121
    12  H    2.271037   4.019596   5.510071   2.714382   3.021217
                   11         12
    11  H    0.000000
    12  H    1.775778   0.000000
 Stoichiometry    C6H6
 Framework group  C1[X(C6H6)]
 Deg. of freedom    30
 Full point group                 C1      NOp   1
 RotChk:  IX=3 Diff= 2.31D-03
 Largest Abelian subgroup         C1      NOp   1
 Largest concise Abelian subgroup C1      NOp   1
                         Standard orientation:                         
 ---------------------------------------------------------------------
 Center     Atomic      Atomic             Coordinates (Angstroms)
 Number     Number       Type             X           Y           Z
 ---------------------------------------------------------------------
      1          6           0       -2.036300    0.226456    0.004551
      2          6           0       -0.112114   -1.357445   -0.067682
      3          6           0       -0.825099    0.144251   -0.327230
      4          6           0        1.549291    0.411989    0.019224
      5          6           0        0.202917    1.201830    0.176350
      6          6           0        1.147966   -1.040184    0.018474
      7          1           0       -0.440126   -2.035436    0.741269
      8          1           0       -2.967148   -0.248925    0.288738
      9          1           0        0.315170    2.133790   -0.438601
     10          1           0       -0.494800    1.289334    0.962907
     11          1           0        1.581101    0.585911   -1.019157
     12          1           0        2.445836    0.753939    0.522721
 ---------------------------------------------------------------------
 Rotational constants (GHZ):      7.1100116      4.0026309      2.6896178
 Leave Link  202 at Thu Mar 19 17:16:25 2026, MaxMem=   536870912 cpu:         0.0
 (Enter C:\G09W\l301.exe)
 Standard basis: 6-31G(d) (6D, 7F)
 Ernie: Thresh=  0.10000D-02 Tol=  0.10000D-05 Strict=F.
 There are   102 symmetry adapted cartesian basis functions of A   symmetry.
 There are   102 symmetry adapted basis functions of A   symmetry.
   102 basis functions,   192 primitive gaussians,   102 cartesian basis functions
    21 alpha electrons       21 beta electrons
       nuclear repulsion energy       198.7638065547 Hartrees.
 IExCor=  402 DFT=T Ex+Corr=B3LYP ExCW=0 ScaHFX=  0.200000
 ScaDFX=  0.800000  0.720000  1.000000  0.810000 ScalE2=  1.000000  1.000000
 IRadAn=      0 IRanWt=     -1 IRanGd=            0 ICorTp=0 IEmpDi=  4
 NAtoms=   12 NActive=   12 NUniq=   12 SFac= 1.00D+00 NAtFMM=   60 NAOKFM=F Big=F
 Integral buffers will be    131072 words long.
 Raffenetti 2 integral format.
 Two-electron integral symmetry is turned on.
 Leave Link  301 at Thu Mar 19 17:16:25 2026, MaxMem=   536870912 cpu:         0.0
 (Enter C:\G09W\l302.exe)
 NPDir=0 NMtPBC=     1 NCelOv=     1 NCel=       1 NClECP=     1 NCelD=      1
         NCelK=      1 NCelE2=     1 NClLst=     1 CellRange=     0.0.
 One-electron integrals computed using PRISM.
 NBasis=   102 RedAO= T EigKep=  2.16D-03  NBF=   102
 NBsUse=   102 1.00D-06 EigRej= -1.00D+00 NBFU=   102
 Precomputing XC quadrature grid using
 IXCGrd= 4 IRadAn=           0 IRanWt=          -1 IRanGd=           0 AccXCQ= 0.00D+00.
 Generated NRdTot=       0 NPtTot=           0 NUsed=           0 NTot=          32
 NSgBfM=   102   102   102   102   102 MxSgAt=    12 MxSgA2=    12.
 Leave Link  302 at Thu Mar 19 17:16:26 2026, MaxMem=   536870912 cpu:         0.0
 (Enter C:\G09W\l303.exe)
 DipDrv:  MaxL=1.
 Leave Link  303 at Thu Mar 19 17:16:26 2026, MaxMem=   536870912 cpu:         0.0
 (Enter C:\G09W\l401.exe)
 Initial guess from the checkpoint file:  "benzene_xtb.chk"
 B after Tr=     0.000000    0.000000    0.000000
         Rot=    1.000000    0.000116   -0.000003    0.000718 Ang=   0.08 deg.
 Guess basis will be translated and rotated to current coordinates.
 JPrj=2 DoOrth=T DoCkMO=T.
 Leave Link  401 at Thu Mar 19 17:16:26 2026, MaxMem=   536870912 cpu:         0.0
 (Enter C:\G09W\l502.exe)
 Closed shell SCF:
 Using DIIS extrapolation, IDIIS=  1040.
 Integral symmetry usage will be decided dynamically.
 Keep R1 ints in memory in canonical form, NReq=14774045.
 IVT=       51148 IEndB=       51148 NGot=   536870912 MDV=   523020134
 LenX=   523020134 LenY=   523009289
 Requested convergence on RMS density matrix=1.00D-08 within 128 cycles.
 Requested convergence on MAX density matrix=1.00D-06.
 Requested convergence on             energy=1.00D-06.
 No special actions if energy rises.
 FoFCou: FMM=F IPFlag=           0 FMFlag=           0 FMFlg1=           0
         NFxFlg=           0 DoJE=F BraDBF=F KetDBF=F FulRan=T
         wScrn=  0.000000 ICntrl=     600 IOpCl=  0 I1Cent=           0 NGrid=           0
         NMat0=    1 NMatS0=   5253 NMatT0=    0 NMatD0=    1 NMtDS0=    0 NMtDT0=    0
 Symmetry not used in FoFCou.

 Cycle   1  Pass 1  IDiag  1:
 E= -231.927912527941    
 DIIS: error= 3.22D-04 at cycle   1 NSaved=   1.
 NSaved= 1 IEnMin= 1 EnMin= -231.927912527941     IErMin= 1 ErrMin= 3.22D-04
 ErrMax= 3.22D-04  0.00D+00 EMaxC= 1.00D-01 BMatC= 1.77D-05 BMatP= 1.77D-05
 IDIUse=3 WtCom= 9.97D-01 WtEn= 3.22D-03
 Coeff-Com:  0.100D+01
 Coeff-En:   0.100D+01
 Coeff:      0.100D+01
 Gap=     1.603 Goal=   None    Shift=    0.000
 RMSDP=1.00D-04 MaxDP=1.68D-03              OVMax= 2.72D-03

 Cycle   2  Pass 1  IDiag  1:
 E= -231.927950359920     Delta-E=       -0.000037831979 Rises=F Damp=F
 DIIS: error= 1.04D-04 at cycle   2 NSaved=   2.
 NSaved= 2 IEnMin= 2 EnMin= -231.927950359920     IErMin= 2 ErrMin= 1.04D-04
 ErrMax= 1.04D-04  0.00D+00 EMaxC= 1.00D-01 BMatC= 2.01D-06 BMatP= 1.77D-05
 IDIUse=3 WtCom= 9.99D-01 WtEn= 1.04D-03
 Coeff-Com:  0.103D+00 0.897D+00
 Coeff-En:   0.000D+00 0.100D+01
 Coeff:      0.103D+00 0.897D+00
 Gap=     0.109 Goal=   None    Shift=    0.000
 RMSDP=5.69D-05 MaxDP=1.45D-03 DE=-3.78D-05 OVMax= 4.27D-03

 Cycle   3  Pass 1  IDiag  1:
 E= -231.927930424045     Delta-E=        0.000019935875 Rises=F Damp=F
 DIIS: error= 4.77D-04 at cycle   3 NSaved=   3.
 NSaved= 3 IEnMin= 2 EnMin= -231.927950359920     IErMin= 2 ErrMin= 1.04D-04
 ErrMax= 4.77D-04  0.00D+00 EMaxC= 1.00D-01 BMatC= 1.82D-05 BMatP= 2.01D-06
 IDIUse=3 WtCom= 3.14D-01 WtEn= 6.86D-01
 Coeff-Com:  0.119D-01 0.768D+00 0.220D+00
 Coeff-En:   0.000D+00 0.845D+00 0.155D+00
 Coeff:      0.375D-02 0.820D+00 0.176D+00
 Gap=     0.109 Goal=   None    Shift=    0.000
 RMSDP=4.18D-05 MaxDP=1.00D-03 DE= 1.99D-05 OVMax= 3.15D-03

 Cycle   4  Pass 1  IDiag  1:
 E= -231.927952540819     Delta-E=       -0.000022116774 Rises=F Damp=F
 DIIS: error= 4.19D-05 at cycle   4 NSaved=   4.
 NSaved= 4 IEnMin= 4 EnMin= -231.927952540819     IErMin= 4 ErrMin= 4.19D-05
 ErrMax= 4.19D-05  0.00D+00 EMaxC= 1.00D-01 BMatC= 5.20D-07 BMatP= 2.01D-06
 IDIUse=1 WtCom= 1.00D+00 WtEn= 0.00D+00
 Coeff-Com: -0.241D-01 0.394D+00 0.739D-01 0.556D+00
 Coeff:     -0.241D-01 0.394D+00 0.739D-01 0.556D+00
 Gap=     0.109 Goal=   None    Shift=    0.000
 RMSDP=8.96D-06 MaxDP=1.64D-04 DE=-2.21D-05 OVMax= 3.07D-04

 Cycle   5  Pass 1  IDiag  1:
 E= -231.927952919653     Delta-E=       -0.000000378834 Rises=F Damp=F
 DIIS: error= 2.98D-05 at cycle   5 NSaved=   5.
 NSaved= 5 IEnMin= 5 EnMin= -231.927952919653     IErMin= 5 ErrMin= 2.98D-05
 ErrMax= 2.98D-05  0.00D+00 EMaxC= 1.00D-01 BMatC= 1.75D-07 BMatP= 5.20D-07
 IDIUse=1 WtCom= 1.00D+00 WtEn= 0.00D+00
 Coeff-Com: -0.171D-01 0.182D+00 0.224D-01 0.398D+00 0.415D+00
 Coeff:     -0.171D-01 0.182D+00 0.224D-01 0.398D+00 0.415D+00
 Gap=     0.109 Goal=   None    Shift=    0.000
 RMSDP=4.63D-06 MaxDP=8.78D-05 DE=-3.79D-07 OVMax= 2.09D-04

 Cycle   6  Pass 1  IDiag  1:
 E= -231.927953097995     Delta-E=       -0.000000178342 Rises=F Damp=F
 DIIS: error= 7.45D-06 at cycle   6 NSaved=   6.
 NSaved= 6 IEnMin= 6 EnMin= -231.927953097995     IErMin= 6 ErrMin= 7.45D-06
 ErrMax= 7.45D-06  0.00D+00 EMaxC= 1.00D-01 BMatC= 1.05D-08 BMatP= 1.75D-07
 IDIUse=1 WtCom= 1.00D+00 WtEn= 0.00D+00
 Coeff-Com: -0.516D-02 0.343D-01-0.482D-02 0.131D+00 0.230D+00 0.614D+00
 Coeff:     -0.516D-02 0.343D-01-0.482D-02 0.131D+00 0.230D+00 0.614D+00
 Gap=     0.109 Goal=   None    Shift=    0.000
 RMSDP=1.38D-06 MaxDP=1.69D-05 DE=-1.78D-07 OVMax= 3.95D-05

 Cycle   7  Pass 1  IDiag  1:
 E= -231.927953109405     Delta-E=       -0.000000011410 Rises=F Damp=F
 DIIS: error= 3.43D-06 at cycle   7 NSaved=   7.
 NSaved= 7 IEnMin= 7 EnMin= -231.927953109405     IErMin= 7 ErrMin= 3.43D-06
 ErrMax= 3.43D-06  0.00D+00 EMaxC= 1.00D-01 BMatC= 1.17D-09 BMatP= 1.05D-08
 IDIUse=1 WtCom= 1.00D+00 WtEn= 0.00D+00
 Coeff-Com: -0.199D-03-0.785D-02-0.882D-02 0.124D-01 0.516D-01 0.254D+00
 Coeff-Com:  0.699D+00
 Coeff:     -0.199D-03-0.785D-02-0.882D-02 0.124D-01 0.516D-01 0.254D+00
 Coeff:      0.699D+00
 Gap=     0.109 Goal=   None    Shift=    0.000
 RMSDP=5.89D-07 MaxDP=8.29D-06 DE=-1.14D-08 OVMax= 3.35D-05

 Cycle   8  Pass 1  IDiag  1:
 E= -231.927953111144     Delta-E=       -0.000000001738 Rises=F Damp=F
 DIIS: error= 7.38D-07 at cycle   8 NSaved=   8.
 NSaved= 8 IEnMin= 8 EnMin= -231.927953111144     IErMin= 8 ErrMin= 7.38D-07
 ErrMax= 7.38D-07  0.00D+00 EMaxC= 1.00D-01 BMatC= 1.76D-10 BMatP= 1.17D-09
 IDIUse=1 WtCom= 1.00D+00 WtEn= 0.00D+00
 Coeff-Com:  0.807D-03-0.109D-01-0.464D-02-0.165D-01-0.110D-01 0.331D-01
 Coeff-Com:  0.380D+00 0.629D+00
 Coeff:      0.807D-03-0.109D-01-0.464D-02-0.165D-01-0.110D-01 0.331D-01
 Coeff:      0.380D+00 0.629D+00
 Gap=     0.109 Goal=   None    Shift=    0.000
 RMSDP=2.43D-07 MaxDP=2.83D-06 DE=-1.74D-09 OVMax= 1.38D-05

 Cycle   9  Pass 1  IDiag  1:
 E= -231.927953111419     Delta-E=       -0.000000000276 Rises=F Damp=F
 DIIS: error= 2.38D-07 at cycle   9 NSaved=   9.
 NSaved= 9 IEnMin= 9 EnMin= -231.927953111419     IErMin= 9 ErrMin= 2.38D-07
 ErrMax= 2.38D-07  0.00D+00 EMaxC= 1.00D-01 BMatC= 9.13D-12 BMatP= 1.76D-10
 IDIUse=1 WtCom= 1.00D+00 WtEn= 0.00D+00
 Coeff-Com:  0.168D-03-0.109D-02-0.313D-03-0.406D-02-0.684D-02-0.203D-01
 Coeff-Com:  0.723D-02 0.175D+00 0.850D+00
 Coeff:      0.168D-03-0.109D-02-0.313D-03-0.406D-02-0.684D-02-0.203D-01
 Coeff:      0.723D-02 0.175D+00 0.850D+00
 Gap=     0.109 Goal=   None    Shift=    0.000
 RMSDP=8.47D-08 MaxDP=1.19D-06 DE=-2.76D-10 OVMax= 5.74D-06

 Cycle  10  Pass 1  IDiag  1:
 E= -231.927953111436     Delta-E=       -0.000000000017 Rises=F Damp=F
 DIIS: error= 1.03D-07 at cycle  10 NSaved=  10.
 NSaved=10 IEnMin=10 EnMin= -231.927953111436     IErMin=10 ErrMin= 1.03D-07
 ErrMax= 1.03D-07  0.00D+00 EMaxC= 1.00D-01 BMatC= 1.46D-12 BMatP= 9.13D-12
 IDIUse=1 WtCom= 1.00D+00 WtEn= 0.00D+00
 Coeff-Com: -0.744D-05 0.490D-03 0.108D-03 0.104D-03-0.126D-02-0.992D-02
 Coeff-Com: -0.281D-01 0.779D-02 0.269D+00 0.762D+00
 Coeff:     -0.744D-05 0.490D-03 0.108D-03 0.104D-03-0.126D-02-0.992D-02
 Coeff:     -0.281D-01 0.779D-02 0.269D+00 0.762D+00
 Gap=     0.109 Goal=   None    Shift=    0.000
 RMSDP=2.48D-08 MaxDP=2.88D-07 DE=-1.68D-11 OVMax= 1.74D-06

 Cycle  11  Pass 1  IDiag  1:
 E= -231.927953111439     Delta-E=       -0.000000000004 Rises=F Damp=F
 DIIS: error= 5.33D-08 at cycle  11 NSaved=  11.
 NSaved=11 IEnMin=11 EnMin= -231.927953111439     IErMin=11 ErrMin= 5.33D-08
 ErrMax= 5.33D-08  0.00D+00 EMaxC= 1.00D-01 BMatC= 3.32D-13 BMatP= 1.46D-12
 IDIUse=1 WtCom= 1.00D+00 WtEn= 0.00D+00
 Coeff-Com: -0.296D-04 0.443D-03 0.832D-04 0.673D-03 0.230D-03-0.318D-02
 Coeff-Com: -0.181D-01-0.238D-01 0.171D-01 0.410D+00 0.617D+00
 Coeff:     -0.296D-04 0.443D-03 0.832D-04 0.673D-03 0.230D-03-0.318D-02
 Coeff:     -0.181D-01-0.238D-01 0.171D-01 0.410D+00 0.617D+00
 Gap=     0.109 Goal=   None    Shift=    0.000
 RMSDP=1.04D-08 MaxDP=9.87D-08 DE=-3.58D-12 OVMax= 6.37D-07

 Cycle  12  Pass 1  IDiag  1:
 E= -231.927953111439     Delta-E=        0.000000000000 Rises=F Damp=F
 DIIS: error= 6.95D-09 at cycle  12 NSaved=  12.
 NSaved=12 IEnMin=11 EnMin= -231.927953111439     IErMin=12 ErrMin= 6.95D-09
 ErrMax= 6.95D-09  0.00D+00 EMaxC= 1.00D-01 BMatC= 6.52D-15 BMatP= 3.32D-13
 IDIUse=1 WtCom= 1.00D+00 WtEn= 0.00D+00
 Coeff-Com: -0.599D-05 0.674D-04 0.199D-04 0.138D-03 0.162D-03-0.947D-04
 Coeff-Com: -0.207D-02-0.557D-02-0.133D-01 0.473D-01 0.141D+00 0.832D+00
 Coeff:     -0.599D-05 0.674D-04 0.199D-04 0.138D-03 0.162D-03-0.947D-04
 Coeff:     -0.207D-02-0.557D-02-0.133D-01 0.473D-01 0.141D+00 0.832D+00
 Gap=     0.109 Goal=   None    Shift=    0.000
 RMSDP=1.35D-09 MaxDP=2.02D-08 DE= 5.68D-14 OVMax= 7.04D-08

 SCF Done:  E(RB3LYP) =  -231.927953111     A.U. after   12 cycles
            NFock= 12  Conv=0.13D-08     -V/T= 2.0085
 KE= 2.299740682319D+02 PE=-9.343527900561D+02 EE= 2.736869621581D+02
 Leave Link  502 at Thu Mar 19 17:16:36 2026, MaxMem=   536870912 cpu:         9.0
 (Enter C:\G09W\l701.exe)
 Compute integral first derivatives.
 ... and contract with generalized density number  0.
 Leave Link  701 at Thu Mar 19 17:16:37 2026, MaxMem=   536870912 cpu:         0.0
 (Enter C:\G09W\l702.exe)
 L702 exits ... SP integral derivatives will be done elsewhere.
 Leave Link  702 at Thu Mar 19 17:16:37 2026, MaxMem=   536870912 cpu:         0.0
 (Enter C:\G09W\l703.exe)
 Compute integral first derivatives, UseDBF=F ICtDFT=           0.
 Integral derivatives from FoFJK, PRISM(SPDF).
 Calling FoFJK, ICntrl=      2127 FMM=F ISym2X=0 I1Cent= 0 IOpClX= 0 NMat=1 NMatS=1 NMatT=0.
 FoFJK:  IHMeth= 1 ICntrl=    2127 DoSepK=F KAlg= 0 I1Cent=   0 FoldK=F
 IRaf=         0 NMat=   1 IRICut=       1 DoRegI=T DoRafI=F ISym2E= 0.
 FoFCou: FMM=F IPFlag=           0 FMFlag=      100000 FMFlg1=         800
         NFxFlg=           0 DoJE=F BraDBF=F KetDBF=F FulRan=T
         wScrn=  0.000000 ICntrl=    2127 IOpCl=  0 I1Cent=           0 NGrid=           0
         NMat0=    1 NMatS0=      1 NMatT0=    0 NMatD0=    1 NMtDS0=    0 NMtDT0=    0
 Symmetry not used in FoFCou.
 Leave Link  703 at Thu Mar 19 17:16:39 2026, MaxMem=   536870912 cpu:         1.0
 (Enter C:\G09W\l716.exe)
 Dipole        =-1.54395487D-01 4.90369404D-01 4.07790349D-01
 ***** Axes restored to original set *****
 -------------------------------------------------------------------
 Center     Atomic                   Forces (Hartrees/Bohr)
 Number     Number              X              Y              Z
 -------------------------------------------------------------------
      1        6           0.032555041   -0.025164407   -0.008142925
      2        6           0.003888495    0.032216702    0.026666856
      3        6          -0.007193809   -0.006924872    0.011501126
      4        6           0.029197618   -0.016676058    0.003180963
      5        6          -0.000106684    0.001185638   -0.046330853
      6        6          -0.019259991    0.001117880    0.014809991
      7        1           0.008523637   -0.016497902   -0.026153723
      8        1          -0.004362735   -0.000030614   -0.008957205
      9        1           0.015306272   -0.004867392    0.011296090
     10        1          -0.035655624    0.011626204    0.051992606
     11        1          -0.022769640    0.022000718   -0.033720148
     12        1          -0.000122578    0.002014103    0.003857220
 -------------------------------------------------------------------
 Cartesian Forces:  Max     0.051992606 RMS     0.020694627
 Leave Link  716 at Thu Mar 19 17:16:40 2026, MaxMem=   536870912 cpu:         0.0
 (Enter C:\G09W\l103.exe)

 GradGradGradGradGradGradGradGradGradGradGradGradGradGradGradGradGradGrad
 Berny optimization.
 Using GEDIIS/GDIIS optimizer.
 Bend failed for angle     8 -     3 -    11
 Tors failed for dihedral    11 -     3 -     8 -     2
 Tors failed for dihedral     8 -     3 -    11 -     4
 Tors failed for dihedral     8 -     3 -    11 -     5
 Tors failed for dihedral     8 -     3 -    11 -     6
 Tors failed for dihedral     8 -     3 -    11 -    12
 FormBX had a problem.
 Error termination via Lnk1e in C:\G09W\l103.exe at Thu Mar 19 17:16:40 2026.
 Job cpu time:       0 days  0 hours  7 minutes 28.0 seconds.
 File lengths (MBytes):  RWF=      7 Int=      0 D2E=      0 Chk=      2 Scr=      1
