 Entering Gaussian System, Link 0=C:\G09W\g09.exe
 Input=furan_rdkit.com
 Output=C:\workspace\delta_chem\data\raw\furan\furan_rdkit.out
 Initial command:
 C:\G09W\l1.exe ".\Gau-15664.inp" "C:\workspace\delta_chem\data\raw\furan\furan_rdkit.out" /scrdir=".\"
 Entering Link 1 = C:\G09W\l1.exe PID=      4944.
  
 Copyright (c) 1988,1990,1992,1993,1995,1998,2003,2009,2013,
            Gaussian, Inc.  All Rights Reserved.
  
 This is part of the Gaussian(R) 09 program.  It is based on
 the Gaussian(R) 03 system (copyright 2003, Gaussian, Inc.),
 the Gaussian(R) 98 system (copyright 1998, Gaussian, Inc.),
 the Gaussian(R) 94 system (copyright 1995, Gaussian, Inc.),
 the Gaussian 92(TM) system (copyright 1992, Gaussian, Inc.),
 the Gaussian 90(TM) system (copyright 1990, Gaussian, Inc.),
 the Gaussian 88(TM) system (copyright 1988, Gaussian, Inc.),
 the Gaussian 86(TM) system (copyright 1986, Carnegie Mellon
 University), and the Gaussian 82(TM) system (copyright 1983,
 Carnegie Mellon University). Gaussian is a federally registered
 trademark of Gaussian, Inc.
  
 This software contains proprietary and confidential information,
 including trade secrets, belonging to Gaussian, Inc.
  
 This software is provided under written license and may be
 used, copied, transmitted, or stored only in accord with that
 written license.
  
 The following legend is applicable only to US Government
 contracts under FAR:
  
                    RESTRICTED RIGHTS LEGEND
  
 Use, reproduction and disclosure by the US Government is
 subject to restrictions as set forth in subparagraphs (a)
 and (c) of the Commercial Computer Software - Restricted
 Rights clause in FAR 52.227-19.
  
 Gaussian, Inc.
 340 Quinnipiac St., Bldg. 40, Wallingford CT 06492
  
  
 ---------------------------------------------------------------
 Warning -- This program may not be used in any manner that
 competes with the business of Gaussian, Inc. or will provide
 assistance to any competitor of Gaussian, Inc.  The licensee
 of this program is prohibited from giving any competitor of
 Gaussian, Inc. access to this program.  By using this program,
 the user acknowledges that Gaussian, Inc. is engaged in the
 business of creating and licensing software in the field of
 computational chemistry and represents and warrants to the
 licensee that it is not a competitor of Gaussian, Inc. and that
 it will not use this program in any manner prohibited above.
 ---------------------------------------------------------------
  

 Cite this work as:
 Gaussian 09, Revision D.01,
 M. J. Frisch, G. W. Trucks, H. B. Schlegel, G. E. Scuseria, 
 M. A. Robb, J. R. Cheeseman, G. Scalmani, V. Barone, B. Mennucci, 
 G. A. Petersson, H. Nakatsuji, M. Caricato, X. Li, H. P. Hratchian, 
 A. F. Izmaylov, J. Bloino, G. Zheng, J. L. Sonnenberg, M. Hada, 
 M. Ehara, K. Toyota, R. Fukuda, J. Hasegawa, M. Ishida, T. Nakajima, 
 Y. Honda, O. Kitao, H. Nakai, T. Vreven, J. A. Montgomery, Jr., 
 J. E. Peralta, F. Ogliaro, M. Bearpark, J. J. Heyd, E. Brothers, 
 K. N. Kudin, V. N. Staroverov, T. Keith, R. Kobayashi, J. Normand, 
 K. Raghavachari, A. Rendell, J. C. Burant, S. S. Iyengar, J. Tomasi, 
 M. Cossi, N. Rega, J. M. Millam, M. Klene, J. E. Knox, J. B. Cross, 
 V. Bakken, C. Adamo, J. Jaramillo, R. Gomperts, R. E. Stratmann, 
 O. Yazyev, A. J. Austin, R. Cammi, C. Pomelli, J. W. Ochterski, 
 R. L. Martin, K. Morokuma, V. G. Zakrzewski, G. A. Voth, 
 P. Salvador, J. J. Dannenberg, S. Dapprich, A. D. Daniels, 
 O. Farkas, J. B. Foresman, J. V. Ortiz, J. Cioslowski, 
 and D. J. Fox, Gaussian, Inc., Wallingford CT, 2013.
 
 ******************************************
 Gaussian 09:  EM64W-G09RevD.01 13-Apr-2013
                19-Mar-2026 
 ******************************************
 %NProcShared=4
 Will use up to    4 processors via shared memory.
 %Mem=4GB
 %Chk=furan_rdkit.chk
 ---------------------
 #p opt B3LYP/6-31G(d)
 ---------------------
 1/14=-1,18=20,19=15,26=3,38=1/1,3;
 2/9=110,12=2,17=6,18=5,40=1/2;
 3/5=1,6=6,7=1,11=2,16=1,25=1,30=1,71=1,74=-5/1,2,3;
 4//1;
 5/5=2,38=5/2;
 6/7=2,8=2,9=2,10=2,28=1/1;
 7//1,2,3,16;
 1/14=-1,18=20,19=15,26=3/3(2);
 2/9=110/2;
 99//99;
 2/9=110/2;
 3/5=1,6=6,7=1,11=2,16=1,25=1,30=1,71=1,74=-5/1,2,3;
 4/5=5,16=3,69=1/1;
 5/5=2,38=5/2;
 7//1,2,3,16;
 1/14=-1,18=20,19=15,26=3/3(-5);
 2/9=110/2;
 6/7=2,8=2,9=2,10=2,19=2,28=1/1;
 99/9=1/99;
 Leave Link    1 at Thu Mar 19 18:14:46 2026, MaxMem=   536870912 cpu:         0.0
 (Enter C:\G09W\l101.exe)
 -----
 furan
 -----
 Symbolic Z-matrix:
 Charge =  0 Multiplicity = 1
 C                     0.70455   0.7486   -0.03286 
 C                    -0.71136   0.74246  -0.02456 
 C                    -1.08785  -0.57945   0.02852 
 O                     0.00631  -1.38375   0.05328 
 C                     1.0931   -0.56999   0.01574 
 H                     1.36168   1.60586  -0.06962 
 H                    -1.37628   1.59398  -0.05359 
 H                    -2.04165  -1.08774   0.05354 
 H                     2.0515   -1.06998   0.02955 
 
 NAtoms=      9 NQM=        9 NQMF=       0 NMMI=      0 NMMIF=      0
                NMic=       0 NMicF=      0.
                    Isotopes and Nuclear Properties:
 (Nuclear quadrupole moments (NQMom) in fm**2, nuclear magnetic moments (NMagM)
  in nuclear magnetons)

  Atom         1           2           3           4           5           6           7           8           9
 IAtWgt=          12          12          12          16          12           1           1           1           1
 AtmWgt=  12.0000000  12.0000000  12.0000000  15.9949146  12.0000000   1.0078250   1.0078250   1.0078250   1.0078250
 NucSpn=           0           0           0           0           0           1           1           1           1
 AtZEff=   0.0000000   0.0000000   0.0000000   0.0000000   0.0000000   0.0000000   0.0000000   0.0000000   0.0000000
 NQMom=    0.0000000   0.0000000   0.0000000   0.0000000   0.0000000   0.0000000   0.0000000   0.0000000   0.0000000
 NMagM=    0.0000000   0.0000000   0.0000000   0.0000000   0.0000000   2.7928460   2.7928460   2.7928460   2.7928460
 AtZNuc=   6.0000000   6.0000000   6.0000000   8.0000000   6.0000000   1.0000000   1.0000000   1.0000000   1.0000000
 Leave Link  101 at Thu Mar 19 18:14:46 2026, MaxMem=   536870912 cpu:         0.0
 (Enter C:\G09W\l103.exe)

 GradGradGradGradGradGradGradGradGradGradGradGradGradGradGradGradGradGrad
 Berny optimization.
 Initialization pass.
                           ----------------------------
                           !    Initial Parameters    !
                           ! (Angstroms and Degrees)  !
 --------------------------                            --------------------------
 ! Name  Definition              Value          Derivative Info.                !
 --------------------------------------------------------------------------------
 ! R1    R(1,2)                  1.4159         estimate D2E/DX2                !
 ! R2    R(1,5)                  1.3755         estimate D2E/DX2                !
 ! R3    R(1,6)                  1.0808         estimate D2E/DX2                !
 ! R4    R(2,3)                  1.3755         estimate D2E/DX2                !
 ! R5    R(2,7)                  1.0808         estimate D2E/DX2                !
 ! R6    R(3,4)                  1.3582         estimate D2E/DX2                !
 ! R7    R(3,8)                  1.0811         estimate D2E/DX2                !
 ! R8    R(4,5)                  1.3582         estimate D2E/DX2                !
 ! R9    R(5,9)                  1.0811         estimate D2E/DX2                !
 ! A1    A(2,1,5)              106.147          estimate D2E/DX2                !
 ! A2    A(2,1,6)              127.7083         estimate D2E/DX2                !
 ! A3    A(5,1,6)              126.1447         estimate D2E/DX2                !
 ! A4    A(1,2,3)              106.147          estimate D2E/DX2                !
 ! A5    A(1,2,7)              127.7084         estimate D2E/DX2                !
 ! A6    A(3,2,7)              126.1446         estimate D2E/DX2                !
 ! A7    A(2,3,4)              110.445          estimate D2E/DX2                !
 ! A8    A(2,3,8)              133.9665         estimate D2E/DX2                !
 ! A9    A(4,3,8)              115.5885         estimate D2E/DX2                !
 ! A10   A(3,4,5)              106.816          estimate D2E/DX2                !
 ! A11   A(1,5,4)              110.445          estimate D2E/DX2                !
 ! A12   A(1,5,9)              133.9665         estimate D2E/DX2                !
 ! A13   A(4,5,9)              115.5885         estimate D2E/DX2                !
 ! D1    D(5,1,2,3)              0.0001         estimate D2E/DX2                !
 ! D2    D(5,1,2,7)            179.9999         estimate D2E/DX2                !
 ! D3    D(6,1,2,3)           -179.9996         estimate D2E/DX2                !
 ! D4    D(6,1,2,7)              0.0001         estimate D2E/DX2                !
 ! D5    D(2,1,5,4)              0.0            estimate D2E/DX2                !
 ! D6    D(2,1,5,9)           -179.9998         estimate D2E/DX2                !
 ! D7    D(6,1,5,4)            179.9998         estimate D2E/DX2                !
 ! D8    D(6,1,5,9)             -0.0001         estimate D2E/DX2                !
 ! D9    D(1,2,3,4)             -0.0002         estimate D2E/DX2                !
 ! D10   D(1,2,3,8)            179.9996         estimate D2E/DX2                !
 ! D11   D(7,2,3,4)           -179.9999         estimate D2E/DX2                !
 ! D12   D(7,2,3,8)             -0.0001         estimate D2E/DX2                !
 ! D13   D(2,3,4,5)              0.0002         estimate D2E/DX2                !
 ! D14   D(8,3,4,5)           -179.9997         estimate D2E/DX2                !
 ! D15   D(3,4,5,1)             -0.0001         estimate D2E/DX2                !
 ! D16   D(3,4,5,9)            179.9998         estimate D2E/DX2                !
 --------------------------------------------------------------------------------
 Trust Radius=3.00D-01 FncErr=1.00D-07 GrdErr=1.00D-06
 Number of steps in this run=     48 maximum allowed number of steps=    100.
 GradGradGradGradGradGradGradGradGradGradGradGradGradGradGradGradGradGrad

 Leave Link  103 at Thu Mar 19 18:14:47 2026, MaxMem=   536870912 cpu:         0.0
 (Enter C:\G09W\l202.exe)
                          Input orientation:                          
 ---------------------------------------------------------------------
 Center     Atomic      Atomic             Coordinates (Angstroms)
 Number     Number       Type             X           Y           Z
 ---------------------------------------------------------------------
      1          6           0        0.704554    0.748602   -0.032855
      2          6           0       -0.711357    0.742461   -0.024562
      3          6           0       -1.087854   -0.579445    0.028517
      4          8           0        0.006313   -1.383752    0.053279
      5          6           0        1.093098   -0.569986    0.015740
      6          1           0        1.361680    1.605858   -0.069621
      7          1           0       -1.376280    1.593982   -0.053586
      8          1           0       -2.041653   -1.087735    0.053535
      9          1           0        2.051497   -1.069984    0.029554
 ---------------------------------------------------------------------
                    Distance matrix (angstroms):
                    1          2          3          4          5
     1  C    0.000000
     2  C    1.415949   0.000000
     3  C    2.231637   1.375501   0.000000
     4  O    2.245416   2.245416   1.358206   0.000000
     5  C    1.375501   2.231636   2.181010   1.358207   0.000000
     6  H    1.080766   2.246100   3.284113   3.284797   2.194019
     7  H    2.246100   1.080765   2.194018   3.284796   3.284112
     8  H    3.304731   2.263936   1.081072   2.069249   3.177445
     9  H    2.263936   3.304731   3.177445   2.069249   1.081072
                    6          7          8          9
     6  H    0.000000
     7  H    2.738033   0.000000
     8  H    4.342037   2.765104   0.000000
     9  H    2.765106   4.342037   4.093259   0.000000
 Stoichiometry    C4H4O
 Framework group  C1[X(C4H4O)]
 Deg. of freedom    21
 Full point group                 C1      NOp   1
 Largest Abelian subgroup         C1      NOp   1
 Largest concise Abelian subgroup C1      NOp   1
                         Standard orientation:                         
 ---------------------------------------------------------------------
 Center     Atomic      Atomic             Coordinates (Angstroms)
 Number     Number       Type             X           Y           Z
 ---------------------------------------------------------------------
      1          6           0       -0.707984   -0.967865    0.000000
      2          6           0        0.707965   -0.967879   -0.000002
      3          6           0        1.090508    0.353356    0.000001
      4          8           0        0.000012    1.163011   -0.000001
      5          6           0       -1.090501    0.353378    0.000000
      6          1           0       -1.369034   -1.822890    0.000004
      7          1           0        1.368998   -1.822916    0.000000
      8          1           0        2.046638    0.857869    0.000006
      9          1           0       -2.046621    0.857911    0.000003
 ---------------------------------------------------------------------
 Rotational constants (GHZ):      9.5732095      9.1484610      4.6780085
 Leave Link  202 at Thu Mar 19 18:14:47 2026, MaxMem=   536870912 cpu:         0.0
 (Enter C:\G09W\l301.exe)
 Standard basis: 6-31G(d) (6D, 7F)
 Ernie: Thresh=  0.10000D-02 Tol=  0.10000D-05 Strict=F.
 There are    83 symmetry adapted cartesian basis functions of A   symmetry.
 There are    83 symmetry adapted basis functions of A   symmetry.
    83 basis functions,   156 primitive gaussians,    83 cartesian basis functions
    18 alpha electrons       18 beta electrons
       nuclear repulsion energy       160.7365698376 Hartrees.
 IExCor=  402 DFT=T Ex+Corr=B3LYP ExCW=0 ScaHFX=  0.200000
 ScaDFX=  0.800000  0.720000  1.000000  0.810000 ScalE2=  1.000000  1.000000
 IRadAn=      0 IRanWt=     -1 IRanGd=            0 ICorTp=0 IEmpDi=  4
 NAtoms=    9 NActive=    9 NUniq=    9 SFac= 1.00D+00 NAtFMM=   60 NAOKFM=F Big=F
 Integral buffers will be    131072 words long.
 Raffenetti 2 integral format.
 Two-electron integral symmetry is turned on.
 Leave Link  301 at Thu Mar 19 18:14:47 2026, MaxMem=   536870912 cpu:         0.0
 (Enter C:\G09W\l302.exe)
 NPDir=0 NMtPBC=     1 NCelOv=     1 NCel=       1 NClECP=     1 NCelD=      1
         NCelK=      1 NCelE2=     1 NClLst=     1 CellRange=     0.0.
 One-electron integrals computed using PRISM.
 NBasis=    83 RedAO= T EigKep=  1.15D-03  NBF=    83
 NBsUse=    83 1.00D-06 EigRej= -1.00D+00 NBFU=    83
 Precomputing XC quadrature grid using
 IXCGrd= 4 IRadAn=           0 IRanWt=          -1 IRanGd=           0 AccXCQ= 0.00D+00.
 Generated NRdTot=       0 NPtTot=           0 NUsed=           0 NTot=          32
 NSgBfM=    83    83    83    83    83 MxSgAt=     9 MxSgA2=     9.
 Leave Link  302 at Thu Mar 19 18:14:47 2026, MaxMem=   536870912 cpu:         0.0
 (Enter C:\G09W\l303.exe)
 DipDrv:  MaxL=1.
 Leave Link  303 at Thu Mar 19 18:14:48 2026, MaxMem=   536870912 cpu:         0.0
 (Enter C:\G09W\l401.exe)
 ExpMin= 1.61D-01 ExpMax= 5.48D+03 ExpMxC= 8.25D+02 IAcc=1 IRadAn=         1 AccDes= 0.00D+00
 Harris functional with IExCor=  402 and IRadAn=       1 diagonalized for initial guess.
 HarFok:  IExCor=  402 AccDes= 0.00D+00 IRadAn=         1 IDoV= 1 UseB2=F ITyADJ=14
 ICtDFT=  3500011 ScaDFX=  1.000000  1.000000  1.000000  1.000000
 FoFCou: FMM=F IPFlag=           0 FMFlag=      100000 FMFlg1=           0
         NFxFlg=           0 DoJE=T BraDBF=F KetDBF=T FulRan=T
         wScrn=  0.000000 ICntrl=     500 IOpCl=  0 I1Cent=   200000004 NGrid=           0
         NMat0=    1 NMatS0=      1 NMatT0=    0 NMatD0=    1 NMtDS0=    0 NMtDT0=    0
 Petite list used in FoFCou.
 Harris En= -230.027222781538    
 JPrj=0 DoOrth=F DoCkMO=F.
 Leave Link  401 at Thu Mar 19 18:14:48 2026, MaxMem=   536870912 cpu:         0.0
 (Enter C:\G09W\l502.exe)
 Closed shell SCF:
 Using DIIS extrapolation, IDIIS=  1040.
 Integral symmetry usage will be decided dynamically.
 Keep R1 ints in memory in canonical form, NReq=7020585.
 IVT=       40342 IEndB=       40342 NGot=   536870912 MDV=   530752730
 LenX=   530752730 LenY=   530745400
 Requested convergence on RMS density matrix=1.00D-08 within 128 cycles.
 Requested convergence on MAX density matrix=1.00D-06.
 Requested convergence on             energy=1.00D-06.
 No special actions if energy rises.
 FoFCou: FMM=F IPFlag=           0 FMFlag=           0 FMFlg1=           0
         NFxFlg=           0 DoJE=F BraDBF=F KetDBF=F FulRan=T
         wScrn=  0.000000 ICntrl=     600 IOpCl=  0 I1Cent=           0 NGrid=           0
         NMat0=    1 NMatS0=   3486 NMatT0=    0 NMatD0=    1 NMtDS0=    0 NMtDT0=    0
 Symmetry not used in FoFCou.
 Integral accuracy reduced to 1.0D-05 until final iterations.

 Cycle   1  Pass 0  IDiag  1:
 E= -229.908892967413    
 DIIS: error= 3.80D-02 at cycle   1 NSaved=   1.
 NSaved= 1 IEnMin= 1 EnMin= -229.908892967413     IErMin= 1 ErrMin= 3.80D-02
 ErrMax= 3.80D-02  0.00D+00 EMaxC= 1.00D-01 BMatC= 1.04D-01 BMatP= 1.04D-01
 IDIUse=3 WtCom= 6.20D-01 WtEn= 3.80D-01
 Coeff-Com:  0.100D+01
 Coeff-En:   0.100D+01
 Coeff:      0.100D+01
 Gap=     0.217 Goal=   None    Shift=    0.000
 GapD=    0.217 DampG=1.000 DampE=0.500 DampFc=0.5000 IDamp=-1.
 Damping current iteration by 5.00D-01
 RMSDP=8.69D-03 MaxDP=1.38D-01              OVMax= 2.12D-01

 Cycle   2  Pass 0  IDiag  1:
 E= -229.952656725637     Delta-E=       -0.043763758224 Rises=F Damp=T
 DIIS: error= 1.00D-02 at cycle   2 NSaved=   2.
 NSaved= 2 IEnMin= 2 EnMin= -229.952656725637     IErMin= 2 ErrMin= 1.00D-02
 ErrMax= 1.00D-02  0.00D+00 EMaxC= 1.00D-01 BMatC= 1.12D-02 BMatP= 1.04D-01
 IDIUse=3 WtCom= 9.00D-01 WtEn= 1.00D-01
 Coeff-Com:  0.110D+00 0.890D+00
 Coeff-En:   0.193D+00 0.807D+00
 Coeff:      0.118D+00 0.882D+00
 Gap=     0.229 Goal=   None    Shift=    0.000
 RMSDP=2.76D-03 MaxDP=3.85D-02 DE=-4.38D-02 OVMax= 1.76D-01

 Cycle   3  Pass 0  IDiag  1:
 E= -230.007134253344     Delta-E=       -0.054477527707 Rises=F Damp=F
 DIIS: error= 1.44D-02 at cycle   3 NSaved=   3.
 NSaved= 3 IEnMin= 3 EnMin= -230.007134253344     IErMin= 2 ErrMin= 1.00D-02
 ErrMax= 1.44D-02  0.00D+00 EMaxC= 1.00D-01 BMatC= 1.34D-02 BMatP= 1.12D-02
 IDIUse=2 WtCom= 0.00D+00 WtEn= 1.00D+00
 Coeff-En:   0.000D+00 0.000D+00 0.100D+01
 Coeff:      0.000D+00 0.000D+00 0.100D+01
 Gap=     0.224 Goal=   None    Shift=    0.000
 RMSDP=3.75D-03 MaxDP=6.87D-02 DE=-5.45D-02 OVMax= 1.42D-01

 Cycle   4  Pass 0  IDiag  1:
 E= -229.966043244888     Delta-E=        0.041091008457 Rises=F Damp=F
 DIIS: error= 3.23D-02 at cycle   4 NSaved=   4.
 NSaved= 4 IEnMin= 3 EnMin= -230.007134253344     IErMin= 2 ErrMin= 1.00D-02
 ErrMax= 3.23D-02  0.00D+00 EMaxC= 1.00D-01 BMatC= 5.70D-02 BMatP= 1.12D-02
 IDIUse=2 WtCom= 0.00D+00 WtEn= 1.00D+00
 Coeff-En:   0.000D+00 0.000D+00 0.758D+00 0.242D+00
 Coeff:      0.000D+00 0.000D+00 0.758D+00 0.242D+00
 Gap=     0.234 Goal=   None    Shift=    0.000
 RMSDP=1.88D-03 MaxDP=3.48D-02 DE= 4.11D-02 OVMax= 7.75D-02

 Cycle   5  Pass 0  IDiag  1:
 E= -230.016617110906     Delta-E=       -0.050573866019 Rises=F Damp=F
 DIIS: error= 7.68D-03 at cycle   5 NSaved=   5.
 NSaved= 5 IEnMin= 5 EnMin= -230.016617110906     IErMin= 5 ErrMin= 7.68D-03
 ErrMax= 7.68D-03  0.00D+00 EMaxC= 1.00D-01 BMatC= 3.47D-03 BMatP= 1.12D-02
 IDIUse=3 WtCom= 9.23D-01 WtEn= 7.68D-02
 Coeff-Com: -0.631D-02 0.233D-01 0.221D+00-0.122D+00 0.884D+00
 Coeff-En:   0.000D+00 0.000D+00 0.253D+00 0.000D+00 0.747D+00
 Coeff:     -0.583D-02 0.215D-01 0.223D+00-0.113D+00 0.874D+00
 Gap=     0.238 Goal=   None    Shift=    0.000
 RMSDP=6.67D-04 MaxDP=1.15D-02 DE=-5.06D-02 OVMax= 2.55D-02

 Cycle   6  Pass 0  IDiag  1:
 E= -230.019921423312     Delta-E=       -0.003304312406 Rises=F Damp=F
 DIIS: error= 4.48D-04 at cycle   6 NSaved=   6.
 NSaved= 6 IEnMin= 6 EnMin= -230.019921423312     IErMin= 6 ErrMin= 4.48D-04
 ErrMax= 4.48D-04  0.00D+00 EMaxC= 1.00D-01 BMatC= 1.04D-05 BMatP= 3.47D-03
 IDIUse=3 WtCom= 9.96D-01 WtEn= 4.48D-03
 Coeff-Com: -0.453D-02 0.108D-01 0.909D-01-0.693D-01 0.457D+00 0.515D+00
 Coeff-En:   0.000D+00 0.000D+00 0.000D+00 0.000D+00 0.000D+00 0.100D+01
 Coeff:     -0.451D-02 0.107D-01 0.905D-01-0.690D-01 0.455D+00 0.517D+00
 Gap=     0.238 Goal=   None    Shift=    0.000
 RMSDP=3.89D-05 MaxDP=6.56D-04 DE=-3.30D-03 OVMax= 1.55D-03

 Cycle   7  Pass 0  IDiag  1:
 E= -230.019932205636     Delta-E=       -0.000010782324 Rises=F Damp=F
 DIIS: error= 4.13D-05 at cycle   7 NSaved=   7.
 NSaved= 7 IEnMin= 7 EnMin= -230.019932205636     IErMin= 7 ErrMin= 4.13D-05
 ErrMax= 4.13D-05  0.00D+00 EMaxC= 1.00D-01 BMatC= 1.23D-07 BMatP= 1.04D-05
 IDIUse=1 WtCom= 1.00D+00 WtEn= 0.00D+00
 Coeff-Com: -0.205D-03-0.958D-04 0.108D-01-0.620D-02 0.505D-01 0.151D+00
 Coeff-Com:  0.794D+00
 Coeff:     -0.205D-03-0.958D-04 0.108D-01-0.620D-02 0.505D-01 0.151D+00
 Coeff:      0.794D+00
 Gap=     0.238 Goal=   None    Shift=    0.000
 RMSDP=3.51D-06 MaxDP=4.86D-05 DE=-1.08D-05 OVMax= 8.84D-05

 Initial convergence to 1.0D-05 achieved.  Increase integral accuracy.
 Cycle   8  Pass 1  IDiag  1:
 E= -230.019979494465     Delta-E=       -0.000047288829 Rises=F Damp=F
 DIIS: error= 1.92D-05 at cycle   1 NSaved=   1.
 NSaved= 1 IEnMin= 1 EnMin= -230.019979494465     IErMin= 1 ErrMin= 1.92D-05
 ErrMax= 1.92D-05  0.00D+00 EMaxC= 1.00D-01 BMatC= 1.55D-08 BMatP= 1.55D-08
 IDIUse=1 WtCom= 1.00D+00 WtEn= 0.00D+00
 Coeff-Com:  0.100D+01
 Coeff:      0.100D+01
 Gap=     0.238 Goal=   None    Shift=    0.000
 RMSDP=3.51D-06 MaxDP=4.86D-05 DE=-4.73D-05 OVMax= 6.19D-05

 Cycle   9  Pass 1  IDiag  1:
 E= -230.019979508774     Delta-E=       -0.000000014309 Rises=F Damp=F
 DIIS: error= 7.35D-06 at cycle   2 NSaved=   2.
 NSaved= 2 IEnMin= 2 EnMin= -230.019979508774     IErMin= 2 ErrMin= 7.35D-06
 ErrMax= 7.35D-06  0.00D+00 EMaxC= 1.00D-01 BMatC= 3.88D-09 BMatP= 1.55D-08
 IDIUse=1 WtCom= 1.00D+00 WtEn= 0.00D+00
 Coeff-Com:  0.236D+00 0.764D+00
 Coeff:      0.236D+00 0.764D+00
 Gap=     0.238 Goal=   None    Shift=    0.000
 RMSDP=1.58D-06 MaxDP=2.58D-05 DE=-1.43D-08 OVMax= 5.56D-05

 Cycle  10  Pass 1  IDiag  1:
 E= -230.019979505811     Delta-E=        0.000000002964 Rises=F Damp=F
 DIIS: error= 1.11D-05 at cycle   3 NSaved=   3.
 NSaved= 3 IEnMin= 2 EnMin= -230.019979508774     IErMin= 2 ErrMin= 7.35D-06
 ErrMax= 1.11D-05  0.00D+00 EMaxC= 1.00D-01 BMatC= 7.07D-09 BMatP= 3.88D-09
 IDIUse=1 WtCom= 1.00D+00 WtEn= 0.00D+00
 Coeff-Com: -0.165D-01 0.582D+00 0.435D+00
 Coeff:     -0.165D-01 0.582D+00 0.435D+00
 Gap=     0.238 Goal=   None    Shift=    0.000
 RMSDP=9.19D-07 MaxDP=1.62D-05 DE= 2.96D-09 OVMax= 3.61D-05

 Cycle  11  Pass 1  IDiag  1:
 E= -230.019979512570     Delta-E=       -0.000000006760 Rises=F Damp=F
 DIIS: error= 7.03D-07 at cycle   4 NSaved=   4.
 NSaved= 4 IEnMin= 4 EnMin= -230.019979512570     IErMin= 4 ErrMin= 7.03D-07
 ErrMax= 7.03D-07  0.00D+00 EMaxC= 1.00D-01 BMatC= 4.95D-11 BMatP= 3.88D-09
 IDIUse=1 WtCom= 1.00D+00 WtEn= 0.00D+00
 Coeff-Com: -0.129D-01 0.271D+00 0.213D+00 0.529D+00
 Coeff:     -0.129D-01 0.271D+00 0.213D+00 0.529D+00
 Gap=     0.238 Goal=   None    Shift=    0.000
 RMSDP=7.30D-08 MaxDP=1.12D-06 DE=-6.76D-09 OVMax= 1.82D-06

 Cycle  12  Pass 1  IDiag  1:
 E= -230.019979512609     Delta-E=       -0.000000000039 Rises=F Damp=F
 DIIS: error= 2.31D-07 at cycle   5 NSaved=   5.
 NSaved= 5 IEnMin= 5 EnMin= -230.019979512609     IErMin= 5 ErrMin= 2.31D-07
 ErrMax= 2.31D-07  0.00D+00 EMaxC= 1.00D-01 BMatC= 3.19D-12 BMatP= 4.95D-11
 IDIUse=1 WtCom= 1.00D+00 WtEn= 0.00D+00
 Coeff-Com: -0.325D-02 0.513D-01 0.440D-01 0.227D+00 0.681D+00
 Coeff:     -0.325D-02 0.513D-01 0.440D-01 0.227D+00 0.681D+00
 Gap=     0.238 Goal=   None    Shift=    0.000
 RMSDP=2.34D-08 MaxDP=4.06D-07 DE=-3.85D-11 OVMax= 1.03D-06

 Cycle  13  Pass 1  IDiag  1:
 E= -230.019979512617     Delta-E=       -0.000000000008 Rises=F Damp=F
 DIIS: error= 8.93D-08 at cycle   6 NSaved=   6.
 NSaved= 6 IEnMin= 6 EnMin= -230.019979512617     IErMin= 6 ErrMin= 8.93D-08
 ErrMax= 8.93D-08  0.00D+00 EMaxC= 1.00D-01 BMatC= 7.07D-13 BMatP= 3.19D-12
 IDIUse=1 WtCom= 1.00D+00 WtEn= 0.00D+00
 Coeff-Com: -0.378D-03-0.221D-02 0.668D-04 0.664D-01 0.397D+00 0.540D+00
 Coeff:     -0.378D-03-0.221D-02 0.668D-04 0.664D-01 0.397D+00 0.540D+00
 Gap=     0.238 Goal=   None    Shift=    0.000
 RMSDP=8.60D-09 MaxDP=1.06D-07 DE=-7.67D-12 OVMax= 1.82D-07

 SCF Done:  E(RB3LYP) =  -230.019979513     A.U. after   13 cycles
            NFock= 13  Conv=0.86D-08     -V/T= 2.0094
 KE= 2.278728135680D+02 PE=-8.570529869732D+02 EE= 2.384236240551D+02
 Leave Link  502 at Thu Mar 19 18:14:54 2026, MaxMem=   536870912 cpu:         6.0
 (Enter C:\G09W\l601.exe)
 Copying SCF densities to generalized density rwf, IOpCl= 0 IROHF=0.

 **********************************************************************

            Population analysis using the SCF density.

 **********************************************************************

 Orbital symmetries:
       Occupied  (A) (A) (A) (A) (A) (A) (A) (A) (A) (A) (A) (A)
                 (A) (A) (A) (A) (A) (A)
       Virtual   (A) (A) (A) (A) (A) (A) (A) (A) (A) (A) (A) (A)
                 (A) (A) (A) (A) (A) (A) (A) (A) (A) (A) (A) (A)
                 (A) (A) (A) (A) (A) (A) (A) (A) (A) (A) (A) (A)
                 (A) (A) (A) (A) (A) (A) (A) (A) (A) (A) (A) (A)
                 (A) (A) (A) (A) (A) (A) (A) (A) (A) (A) (A) (A)
                 (A) (A) (A) (A) (A)
 The electronic state is 1-A.
 Alpha  occ. eigenvalues --  -19.21456 -10.23229 -10.23228 -10.18450 -10.18403
 Alpha  occ. eigenvalues --   -1.10797  -0.79381  -0.73809  -0.59281  -0.56562
 Alpha  occ. eigenvalues --   -0.53758  -0.44423  -0.44233  -0.40340  -0.39831
 Alpha  occ. eigenvalues --   -0.36709  -0.27537  -0.22081
 Alpha virt. eigenvalues --    0.01741   0.07845   0.11712   0.14251   0.15532
 Alpha virt. eigenvalues --    0.16741   0.19502   0.21142   0.30822   0.37701
 Alpha virt. eigenvalues --    0.43756   0.51603   0.53432   0.58345   0.58677
 Alpha virt. eigenvalues --    0.58804   0.58825   0.61247   0.62495   0.67581
 Alpha virt. eigenvalues --    0.67943   0.80219   0.82193   0.84282   0.90833
 Alpha virt. eigenvalues --    0.90860   0.98162   0.98224   1.01528   1.03443
 Alpha virt. eigenvalues --    1.13355   1.13496   1.34612   1.37469   1.38646
 Alpha virt. eigenvalues --    1.39344   1.53681   1.55605   1.56285   1.57119
 Alpha virt. eigenvalues --    1.67825   1.85203   1.92913   2.01376   2.04691
 Alpha virt. eigenvalues --    2.08816   2.21112   2.22499   2.24325   2.25711
 Alpha virt. eigenvalues --    2.32032   2.40230   2.57306   2.62378   2.63384
 Alpha virt. eigenvalues --    2.69269   2.78351   2.92713   2.95326   3.09626
 Alpha virt. eigenvalues --    3.94005   4.14299   4.15009   4.28829   4.46282
          Condensed to atoms (all electrons):
               1          2          3          4          5          6
     1  C    4.905485   0.509598  -0.055883  -0.056822   0.587038   0.363225
     2  C    0.509598   4.905485   0.587038  -0.056822  -0.055883  -0.036947
     3  C   -0.055883   0.587038   4.844012   0.325116  -0.120063   0.006041
     4  O   -0.056822  -0.056822   0.325116   7.920735   0.325116   0.003285
     5  C    0.587038  -0.055883  -0.120063   0.325116   4.844012  -0.040007
     6  H    0.363225  -0.036947   0.006041   0.003285  -0.040007   0.566997
     7  H   -0.036947   0.363225  -0.040007   0.003285   0.006041  -0.002256
     8  H    0.003731  -0.044462   0.375122  -0.039888   0.006052  -0.000122
     9  H   -0.044462   0.003731   0.006052  -0.039888   0.375122  -0.000459
               7          8          9
     1  C   -0.036947   0.003731  -0.044462
     2  C    0.363225  -0.044462   0.003731
     3  C   -0.040007   0.375122   0.006052
     4  O    0.003285  -0.039888  -0.039888
     5  C    0.006041   0.006052   0.375122
     6  H   -0.002256  -0.000122  -0.000459
     7  H    0.566998  -0.000459  -0.000122
     8  H   -0.000459   0.545999  -0.000179
     9  H   -0.000122  -0.000179   0.545999
 Mulliken charges:
               1
     1  C   -0.174962
     2  C   -0.174963
     3  C    0.072571
     4  O   -0.384115
     5  C    0.072571
     6  H    0.140243
     7  H    0.140243
     8  H    0.154206
     9  H    0.154206
 Sum of Mulliken charges =   0.00000
 Mulliken charges with hydrogens summed into heavy atoms:
               1
     1  C   -0.034720
     2  C   -0.034720
     3  C    0.226777
     4  O   -0.384115
     5  C    0.226777
 Electronic spatial extent (au):  <R**2>=            290.1605
 Charge=              0.0000 electrons
 Dipole moment (field-independent basis, Debye):
    X=              0.0000    Y=             -0.6003    Z=              0.0000  Tot=              0.6003
 Quadrupole moment (field-independent basis, Debye-Ang):
   XX=            -23.8086   YY=            -27.5610   ZZ=            -31.0720
   XY=              0.0000   XZ=              0.0000   YZ=              0.0000
 Traceless Quadrupole moment (field-independent basis, Debye-Ang):
   XX=              3.6719   YY=             -0.0805   ZZ=             -3.5915
   XY=              0.0000   XZ=              0.0000   YZ=              0.0000
 Octapole moment (field-independent basis, Debye-Ang**2):
  XXX=              0.0001  YYY=             -1.3034  ZZZ=              0.0000  XYY=             -0.0001
  XXY=              4.0957  XXZ=              0.0001  XZZ=              0.0000  YZZ=              3.0076
  YYZ=              0.0000  XYZ=              0.0000
 Hexadecapole moment (field-independent basis, Debye-Ang**3):
 XXXX=           -160.1366 YYYY=           -162.8746 ZZZZ=            -30.4439 XXXY=              0.0002
 XXXZ=              0.0000 YYYX=             -0.0002 YYYZ=              0.0000 ZZZX=              0.0000
 ZZZY=              0.0000 XXYY=            -47.5362 XXZZ=            -38.7537 YYZZ=            -34.8845
 XXYZ=              0.0000 YYXZ=              0.0000 ZZXY=              0.0000
 N-N= 1.607365698376D+02 E-N=-8.570529950482D+02  KE= 2.278728135680D+02
 No NMR shielding tensors so no spin-rotation constants.
 Leave Link  601 at Thu Mar 19 18:14:55 2026, MaxMem=   536870912 cpu:         1.0
 (Enter C:\G09W\l701.exe)
 Compute integral first derivatives.
 ... and contract with generalized density number  0.
 Leave Link  701 at Thu Mar 19 18:14:55 2026, MaxMem=   536870912 cpu:         0.0
 (Enter C:\G09W\l702.exe)
 L702 exits ... SP integral derivatives will be done elsewhere.
 Leave Link  702 at Thu Mar 19 18:14:55 2026, MaxMem=   536870912 cpu:         0.0
 (Enter C:\G09W\l703.exe)
 Compute integral first derivatives, UseDBF=F ICtDFT=           0.
 Integral derivatives from FoFJK, PRISM(SPDF).
 Calling FoFJK, ICntrl=      2127 FMM=F ISym2X=0 I1Cent= 0 IOpClX= 0 NMat=1 NMatS=1 NMatT=0.
 FoFJK:  IHMeth= 1 ICntrl=    2127 DoSepK=F KAlg= 0 I1Cent=   0 FoldK=F
 IRaf=         0 NMat=   1 IRICut=       1 DoRegI=T DoRafI=F ISym2E= 0.
 FoFCou: FMM=F IPFlag=           0 FMFlag=      100000 FMFlg1=         800
         NFxFlg=           0 DoJE=F BraDBF=F KetDBF=F FulRan=T
         wScrn=  0.000000 ICntrl=    2127 IOpCl=  0 I1Cent=           0 NGrid=           0
         NMat0=    1 NMatS0=      1 NMatT0=    0 NMatD0=    1 NMtDS0=    0 NMtDT0=    0
 Symmetry not used in FoFCou.
 Leave Link  703 at Thu Mar 19 18:14:57 2026, MaxMem=   536870912 cpu:         1.0
 (Enter C:\G09W\l716.exe)
 Dipole        =-2.30052493D-06-2.36168915D-01 4.61443754D-06
 ***** Axes restored to original set *****
 -------------------------------------------------------------------
 Center     Atomic                   Forces (Hartrees/Bohr)
 Number     Number              X              Y              Z
 -------------------------------------------------------------------
      1        6           0.014538030   -0.011816217    0.000372575
      2        6          -0.014429715   -0.011942208    0.000542691
      3        6          -0.002569652    0.010643213   -0.000395729
      4        8           0.000001568   -0.000281964    0.000011179
      5        6           0.002472454    0.010664543   -0.000424966
      6        1           0.000193999    0.000241690   -0.000010596
      7        1          -0.000196350    0.000240391   -0.000008177
      8        1           0.000864227    0.001128989   -0.000048630
      9        1          -0.000874562    0.001121564   -0.000038347
 -------------------------------------------------------------------
 Cartesian Forces:  Max     0.014538030 RMS     0.005921173
 Leave Link  716 at Thu Mar 19 18:14:57 2026, MaxMem=   536870912 cpu:         0.0
 (Enter C:\G09W\l103.exe)

 GradGradGradGradGradGradGradGradGradGradGradGradGradGradGradGradGradGrad
 Berny optimization.
 FormGI is forming the generalized inverse of G from B-inverse, IUseBI=4.
 Internal  Forces:  Max     0.012468393 RMS     0.003536499
 Search for a local minimum.
 Step number   1 out of a maximum of   48
 All quantities printed in internal units (Hartrees-Bohrs-Radians)
 RMS Force = .35365D-02 SwitMx=.10000D-02 MixMth= 1
 Mixed Optimization -- RFO/linear search
 Second derivative matrix not updated -- first step.
 ITU=  0
     Eigenvalues ---    0.02055   0.02171   0.02196   0.02315   0.02373
     Eigenvalues ---    0.02381   0.16000   0.16000   0.16000   0.16000
     Eigenvalues ---    0.22000   0.22916   0.35865   0.35865   0.35902
     Eigenvalues ---    0.35902   0.40798   0.43713   0.49238   0.51163
     Eigenvalues ---    0.52573
 RFO step:  Lambda=-1.04189144D-03 EMin= 2.05498035D-02
 Linear search not attempted -- first point.
 Iteration  1 RMS(Cart)=  0.00897196 RMS(Int)=  0.00001245
 Iteration  2 RMS(Cart)=  0.00000974 RMS(Int)=  0.00000380
 Iteration  3 RMS(Cart)=  0.00000000 RMS(Int)=  0.00000380
 ITry= 1 IFail=0 DXMaxC= 1.60D-02 DCOld= 1.00D+10 DXMaxT= 3.00D-01 DXLimC= 3.00D+00 Rises=F
 Variable       Old X    -DE/DX   Delta X   Delta X   Delta X     New X
                                 (Linear)    (Quad)   (Total)
    R1        2.67576   0.01247   0.00000   0.02861   0.02862   2.70438
    R2        2.59932  -0.01180   0.00000  -0.02365  -0.02365   2.57567
    R3        2.04235   0.00031   0.00000   0.00086   0.00086   2.04321
    R4        2.59932  -0.01180   0.00000  -0.02365  -0.02365   2.57567
    R5        2.04235   0.00031   0.00000   0.00086   0.00086   2.04321
    R6        2.56664   0.00319   0.00000   0.00613   0.00613   2.57277
    R7        2.04293  -0.00129   0.00000  -0.00360  -0.00360   2.03933
    R8        2.56664   0.00319   0.00000   0.00613   0.00613   2.57277
    R9        2.04293  -0.00129   0.00000  -0.00360  -0.00360   2.03933
    A1        1.85261   0.00057   0.00000   0.00216   0.00217   1.85479
    A2        2.22893  -0.00028   0.00000  -0.00104  -0.00104   2.22789
    A3        2.20164  -0.00029   0.00000  -0.00113  -0.00113   2.20051
    A4        1.85262   0.00057   0.00000   0.00216   0.00217   1.85479
    A5        2.22893  -0.00028   0.00000  -0.00104  -0.00104   2.22789
    A6        2.20164  -0.00029   0.00000  -0.00112  -0.00113   2.20051
    A7        1.92763  -0.00176   0.00000  -0.00753  -0.00753   1.92010
    A8        2.33816   0.00028   0.00000   0.00002   0.00002   2.33818
    A9        2.01740   0.00148   0.00000   0.00751   0.00751   2.02491
   A10        1.86429   0.00238   0.00000   0.01073   0.01071   1.87501
   A11        1.92763  -0.00176   0.00000  -0.00753  -0.00753   1.92010
   A12        2.33816   0.00028   0.00000   0.00002   0.00002   2.33818
   A13        2.01740   0.00148   0.00000   0.00751   0.00751   2.02491
    D1        0.00000   0.00000   0.00000  -0.00001  -0.00001   0.00000
    D2        3.14159   0.00000   0.00000   0.00000   0.00000   3.14159
    D3       -3.14159   0.00000   0.00000  -0.00001  -0.00001   3.14159
    D4        0.00000   0.00000   0.00000   0.00000   0.00000   0.00000
    D5        0.00000   0.00000   0.00000   0.00000   0.00000   0.00000
    D6       -3.14159   0.00000   0.00000   0.00000   0.00000  -3.14159
    D7        3.14159   0.00000   0.00000   0.00000   0.00000   3.14159
    D8        0.00000   0.00000   0.00000   0.00000   0.00000   0.00000
    D9        0.00000   0.00000   0.00000   0.00001   0.00001   0.00001
   D10        3.14159   0.00000   0.00000   0.00001   0.00001  -3.14159
   D11       -3.14159   0.00000   0.00000   0.00000   0.00000  -3.14159
   D12        0.00000   0.00000   0.00000   0.00000   0.00000   0.00000
   D13        0.00000   0.00000   0.00000  -0.00001  -0.00001   0.00000
   D14       -3.14159   0.00000   0.00000  -0.00001  -0.00001   3.14159
   D15        0.00000   0.00000   0.00000   0.00000   0.00000   0.00000
   D16        3.14159   0.00000   0.00000   0.00001   0.00001  -3.14159
         Item               Value     Threshold  Converged?
 Maximum Force            0.012468     0.000450     NO 
 RMS     Force            0.003536     0.000300     NO 
 Maximum Displacement     0.016039     0.001800     NO 
 RMS     Displacement     0.008970     0.001200     NO 
 Predicted change in Energy=-5.222056D-04
 Lowest energy point so far.  Saving SCF results.
 GradGradGradGradGradGradGradGradGradGradGradGradGradGradGradGradGradGrad

 Leave Link  103 at Thu Mar 19 18:14:58 2026, MaxMem=   536870912 cpu:         0.0
 (Enter C:\G09W\l202.exe)
                          Input orientation:                          
 ---------------------------------------------------------------------
 Center     Atomic      Atomic             Coordinates (Angstroms)
 Number     Number       Type             X           Y           Z
 ---------------------------------------------------------------------
      1          6           0        0.712165    0.740180   -0.032573
      2          6           0       -0.718891    0.733973   -0.024188
      3          6           0       -1.094809   -0.575093    0.028388
      4          8           0        0.006275   -1.375438    0.052963
      5          6           0        1.100014   -0.565574    0.015533
      6          1           0        1.368673    1.598481   -0.069382
      7          1           0       -1.383205    1.586546   -0.053258
      8          1           0       -2.048019   -1.080440    0.053284
      9          1           0        2.057796   -1.062634    0.029234
 ---------------------------------------------------------------------
                    Distance matrix (angstroms):
                    1          2          3          4          5
     1  C    0.000000
     2  C    1.431094   0.000000
     3  C    2.235803   1.362987   0.000000
     4  O    2.231913   2.231913   1.361449   0.000000
     5  C    1.362987   2.235803   2.194881   1.361449   0.000000
     6  H    1.081221   2.259942   3.286750   3.273422   2.182321
     7  H    2.259943   1.081221   2.182321   3.273422   3.286751
     8  H    3.307664   2.250484   1.079168   2.075367   3.190081
     9  H    2.250484   3.307664   3.190081   2.075367   1.079168
                    6          7          8          9
     6  H    0.000000
     7  H    2.751951   0.000000
     8  H    4.343437   2.750663   0.000000
     9  H    2.750663   4.343438   4.105924   0.000000
 Stoichiometry    C4H4O
 Framework group  C1[X(C4H4O)]
 Deg. of freedom    21
 Full point group                 C1      NOp   1
 RotChk:  IX=1 Diff= 1.65D-05
 Largest Abelian subgroup         C1      NOp   1
 Largest concise Abelian subgroup C1      NOp   1
                         Standard orientation:                         
 ---------------------------------------------------------------------
 Center     Atomic      Atomic             Coordinates (Angstroms)
 Number     Number       Type             X           Y           Z
 ---------------------------------------------------------------------
      1          6           0       -0.715545   -0.958927   -0.000001
      2          6           0        0.715549   -0.958924    0.000002
      3          6           0        1.097440    0.349469   -0.000002
      4          8           0       -0.000002    1.155177    0.000001
      5          6           0       -1.097441    0.349465    0.000000
      6          1           0       -1.375972   -1.815008   -0.000002
      7          1           0        1.375979   -1.815003    0.000002
      8          1           0        2.052960    0.851050   -0.000002
      9          1           0       -2.052963    0.851044    0.000000
 ---------------------------------------------------------------------
 Rotational constants (GHZ):      9.4455044      9.2916604      4.6839754
 Leave Link  202 at Thu Mar 19 18:14:58 2026, MaxMem=   536870912 cpu:         0.0
 (Enter C:\G09W\l301.exe)
 Standard basis: 6-31G(d) (6D, 7F)
 Ernie: Thresh=  0.10000D-02 Tol=  0.10000D-05 Strict=F.
 There are    83 symmetry adapted cartesian basis functions of A   symmetry.
 There are    83 symmetry adapted basis functions of A   symmetry.
    83 basis functions,   156 primitive gaussians,    83 cartesian basis functions
    18 alpha electrons       18 beta electrons
       nuclear repulsion energy       160.8183945310 Hartrees.
 IExCor=  402 DFT=T Ex+Corr=B3LYP ExCW=0 ScaHFX=  0.200000
 ScaDFX=  0.800000  0.720000  1.000000  0.810000 ScalE2=  1.000000  1.000000
 IRadAn=      0 IRanWt=     -1 IRanGd=            0 ICorTp=0 IEmpDi=  4
 NAtoms=    9 NActive=    9 NUniq=    9 SFac= 1.00D+00 NAtFMM=   60 NAOKFM=F Big=F
 Integral buffers will be    131072 words long.
 Raffenetti 2 integral format.
 Two-electron integral symmetry is turned on.
 Leave Link  301 at Thu Mar 19 18:14:58 2026, MaxMem=   536870912 cpu:         0.0
 (Enter C:\G09W\l302.exe)
 NPDir=0 NMtPBC=     1 NCelOv=     1 NCel=       1 NClECP=     1 NCelD=      1
         NCelK=      1 NCelE2=     1 NClLst=     1 CellRange=     0.0.
 One-electron integrals computed using PRISM.
 NBasis=    83 RedAO= T EigKep=  1.15D-03  NBF=    83
 NBsUse=    83 1.00D-06 EigRej= -1.00D+00 NBFU=    83
 Precomputing XC quadrature grid using
 IXCGrd= 4 IRadAn=           0 IRanWt=          -1 IRanGd=           0 AccXCQ= 0.00D+00.
 Generated NRdTot=       0 NPtTot=           0 NUsed=           0 NTot=          32
 NSgBfM=    83    83    83    83    83 MxSgAt=     9 MxSgA2=     9.
 Leave Link  302 at Thu Mar 19 18:14:59 2026, MaxMem=   536870912 cpu:         1.0
 (Enter C:\G09W\l303.exe)
 DipDrv:  MaxL=1.
 Leave Link  303 at Thu Mar 19 18:14:59 2026, MaxMem=   536870912 cpu:         0.0
 (Enter C:\G09W\l401.exe)
 Initial guess from the checkpoint file:  "furan_rdkit.chk"
 B after Tr=     0.000000    0.000000    0.000000
         Rot=    1.000000    0.000000    0.000000   -0.000006 Ang=   0.00 deg.
 Guess basis will be translated and rotated to current coordinates.
 JPrj=2 DoOrth=T DoCkMO=T.
 Leave Link  401 at Thu Mar 19 18:14:59 2026, MaxMem=   536870912 cpu:         0.0
 (Enter C:\G09W\l502.exe)
 Closed shell SCF:
 Using DIIS extrapolation, IDIIS=  1040.
 Integral symmetry usage will be decided dynamically.
 Keep R1 ints in memory in canonical form, NReq=7020585.
 IVT=       40342 IEndB=       40342 NGot=   536870912 MDV=   530752730
 LenX=   530752730 LenY=   530745400
 Requested convergence on RMS density matrix=1.00D-08 within 128 cycles.
 Requested convergence on MAX density matrix=1.00D-06.
 Requested convergence on             energy=1.00D-06.
 No special actions if energy rises.
 FoFCou: FMM=F IPFlag=           0 FMFlag=           0 FMFlg1=           0
         NFxFlg=           0 DoJE=F BraDBF=F KetDBF=F FulRan=T
         wScrn=  0.000000 ICntrl=     600 IOpCl=  0 I1Cent=           0 NGrid=           0
         NMat0=    1 NMatS0=   3486 NMatT0=    0 NMatD0=    1 NMtDS0=    0 NMtDT0=    0
 Symmetry not used in FoFCou.

 Cycle   1  Pass 1  IDiag  1:
 E= -230.020280634978    
 DIIS: error= 1.14D-03 at cycle   1 NSaved=   1.
 NSaved= 1 IEnMin= 1 EnMin= -230.020280634978     IErMin= 1 ErrMin= 1.14D-03
 ErrMax= 1.14D-03  0.00D+00 EMaxC= 1.00D-01 BMatC= 1.14D-04 BMatP= 1.14D-04
 IDIUse=3 WtCom= 9.89D-01 WtEn= 1.14D-02
 Coeff-Com:  0.100D+01
 Coeff-En:   0.100D+01
 Coeff:      0.100D+01
 Gap=     1.496 Goal=   None    Shift=    0.000
 GapD=    1.496 DampG=2.000 DampE=1.000 DampFc=2.0000 IDamp=-1.
 RMSDP=2.50D-04 MaxDP=3.08D-03              OVMax= 6.23D-03

 Cycle   2  Pass 1  IDiag  1:
 E= -230.020473647677     Delta-E=       -0.000193012698 Rises=F Damp=F
 DIIS: error= 5.04D-04 at cycle   2 NSaved=   2.
 NSaved= 2 IEnMin= 2 EnMin= -230.020473647677     IErMin= 2 ErrMin= 5.04D-04
 ErrMax= 5.04D-04  0.00D+00 EMaxC= 1.00D-01 BMatC= 2.51D-05 BMatP= 1.14D-04
 IDIUse=3 WtCom= 9.95D-01 WtEn= 5.04D-03
 Coeff-Com:  0.246D+00 0.754D+00
 Coeff-En:   0.000D+00 0.100D+01
 Coeff:      0.245D+00 0.755D+00
 Gap=     0.243 Goal=   None    Shift=    0.000
 RMSDP=7.21D-05 MaxDP=1.45D-03 DE=-1.93D-04 OVMax= 2.27D-03

 Cycle   3  Pass 1  IDiag  1:
 E= -230.020480565814     Delta-E=       -0.000006918138 Rises=F Damp=F
 DIIS: error= 5.31D-04 at cycle   3 NSaved=   3.
 NSaved= 3 IEnMin= 3 EnMin= -230.020480565814     IErMin= 2 ErrMin= 5.04D-04
 ErrMax= 5.31D-04  0.00D+00 EMaxC= 1.00D-01 BMatC= 1.87D-05 BMatP= 2.51D-05
 IDIUse=3 WtCom= 9.95D-01 WtEn= 5.31D-03
 Coeff-Com:  0.113D-01 0.460D+00 0.529D+00
 Coeff-En:   0.000D+00 0.409D+00 0.591D+00
 Coeff:      0.113D-01 0.459D+00 0.529D+00
 Gap=     0.244 Goal=   None    Shift=    0.000
 RMSDP=3.55D-05 MaxDP=8.46D-04 DE=-6.92D-06 OVMax= 1.27D-03

 Cycle   4  Pass 1  IDiag  1:
 E= -230.020494668729     Delta-E=       -0.000014102915 Rises=F Damp=F
 DIIS: error= 8.82D-05 at cycle   4 NSaved=   4.
 NSaved= 4 IEnMin= 4 EnMin= -230.020494668729     IErMin= 4 ErrMin= 8.82D-05
 ErrMax= 8.82D-05  0.00D+00 EMaxC= 1.00D-01 BMatC= 4.84D-07 BMatP= 1.87D-05
 IDIUse=1 WtCom= 1.00D+00 WtEn= 0.00D+00
 Coeff-Com: -0.762D-02 0.118D+00 0.202D+00 0.688D+00
 Coeff:     -0.762D-02 0.118D+00 0.202D+00 0.688D+00
 Gap=     0.244 Goal=   None    Shift=    0.000
 RMSDP=9.51D-06 MaxDP=2.53D-04 DE=-1.41D-05 OVMax= 3.94D-04

 Cycle   5  Pass 1  IDiag  1:
 E= -230.020494953625     Delta-E=       -0.000000284896 Rises=F Damp=F
 DIIS: error= 3.95D-05 at cycle   5 NSaved=   5.
 NSaved= 5 IEnMin= 5 EnMin= -230.020494953625     IErMin= 5 ErrMin= 3.95D-05
 ErrMax= 3.95D-05  0.00D+00 EMaxC= 1.00D-01 BMatC= 1.30D-07 BMatP= 4.84D-07
 IDIUse=1 WtCom= 1.00D+00 WtEn= 0.00D+00
 Coeff-Com: -0.547D-02 0.393D-01 0.833D-01 0.419D+00 0.463D+00
 Coeff:     -0.547D-02 0.393D-01 0.833D-01 0.419D+00 0.463D+00
 Gap=     0.244 Goal=   None    Shift=    0.000
 RMSDP=4.92D-06 MaxDP=6.93D-05 DE=-2.85D-07 OVMax= 1.74D-04

 Cycle   6  Pass 1  IDiag  1:
 E= -230.020495066141     Delta-E=       -0.000000112516 Rises=F Damp=F
 DIIS: error= 1.20D-05 at cycle   6 NSaved=   6.
 NSaved= 6 IEnMin= 6 EnMin= -230.020495066141     IErMin= 6 ErrMin= 1.20D-05
 ErrMax= 1.20D-05  0.00D+00 EMaxC= 1.00D-01 BMatC= 1.11D-08 BMatP= 1.30D-07
 IDIUse=1 WtCom= 1.00D+00 WtEn= 0.00D+00
 Coeff-Com: -0.195D-02 0.731D-02 0.213D-01 0.160D+00 0.269D+00 0.544D+00
 Coeff:     -0.195D-02 0.731D-02 0.213D-01 0.160D+00 0.269D+00 0.544D+00
 Gap=     0.244 Goal=   None    Shift=    0.000
 RMSDP=1.47D-06 MaxDP=2.38D-05 DE=-1.13D-07 OVMax= 6.07D-05

 Cycle   7  Pass 1  IDiag  1:
 E= -230.020495077756     Delta-E=       -0.000000011615 Rises=F Damp=F
 DIIS: error= 2.63D-06 at cycle   7 NSaved=   7.
 NSaved= 7 IEnMin= 7 EnMin= -230.020495077756     IErMin= 7 ErrMin= 2.63D-06
 ErrMax= 2.63D-06  0.00D+00 EMaxC= 1.00D-01 BMatC= 7.54D-10 BMatP= 1.11D-08
 IDIUse=1 WtCom= 1.00D+00 WtEn= 0.00D+00
 Coeff-Com:  0.846D-04-0.409D-02-0.662D-02 0.459D-02 0.372D-01 0.225D+00
 Coeff-Com:  0.743D+00
 Coeff:      0.846D-04-0.409D-02-0.662D-02 0.459D-02 0.372D-01 0.225D+00
 Coeff:      0.743D+00
 Gap=     0.244 Goal=   None    Shift=    0.000
 RMSDP=3.71D-07 MaxDP=3.78D-06 DE=-1.16D-08 OVMax= 1.27D-05

 Cycle   8  Pass 1  IDiag  1:
 E= -230.020495078509     Delta-E=       -0.000000000754 Rises=F Damp=F
 DIIS: error= 6.38D-07 at cycle   8 NSaved=   8.
 NSaved= 8 IEnMin= 8 EnMin= -230.020495078509     IErMin= 8 ErrMin= 6.38D-07
 ErrMax= 6.38D-07  0.00D+00 EMaxC= 1.00D-01 BMatC= 2.08D-11 BMatP= 7.54D-10
 IDIUse=1 WtCom= 1.00D+00 WtEn= 0.00D+00
 Coeff-Com:  0.886D-04-0.631D-03-0.220D-02-0.504D-02-0.902D-02 0.414D-02
 Coeff-Com:  0.806D-01 0.932D+00
 Coeff:      0.886D-04-0.631D-03-0.220D-02-0.504D-02-0.902D-02 0.414D-02
 Coeff:      0.806D-01 0.932D+00
 Gap=     0.244 Goal=   None    Shift=    0.000
 RMSDP=5.52D-08 MaxDP=9.20D-07 DE=-7.54D-10 OVMax= 1.64D-06

 Cycle   9  Pass 1  IDiag  1:
 E= -230.020495078532     Delta-E=       -0.000000000023 Rises=F Damp=F
 DIIS: error= 3.11D-08 at cycle   9 NSaved=   9.
 NSaved= 9 IEnMin= 9 EnMin= -230.020495078532     IErMin= 9 ErrMin= 3.11D-08
 ErrMax= 3.11D-08  0.00D+00 EMaxC= 1.00D-01 BMatC= 9.56D-14 BMatP= 2.08D-11
 IDIUse=1 WtCom= 1.00D+00 WtEn= 0.00D+00
 Coeff-Com:  0.978D-05 0.579D-05-0.175D-03-0.622D-03-0.171D-02-0.307D-02
 Coeff-Com: -0.209D-02 0.107D+00 0.901D+00
 Coeff:      0.978D-05 0.579D-05-0.175D-03-0.622D-03-0.171D-02-0.307D-02
 Coeff:     -0.209D-02 0.107D+00 0.901D+00
 Gap=     0.244 Goal=   None    Shift=    0.000
 RMSDP=3.97D-09 MaxDP=7.28D-08 DE=-2.26D-11 OVMax= 1.14D-07

 SCF Done:  E(RB3LYP) =  -230.020495079     A.U. after    9 cycles
            NFock=  9  Conv=0.40D-08     -V/T= 2.0093
 KE= 2.278948644492D+02 PE=-8.572615222796D+02 EE= 2.385277682209D+02
 Leave Link  502 at Thu Mar 19 18:15:06 2026, MaxMem=   536870912 cpu:         6.0
 (Enter C:\G09W\l701.exe)
 Compute integral first derivatives.
 ... and contract with generalized density number  0.
 Leave Link  701 at Thu Mar 19 18:15:06 2026, MaxMem=   536870912 cpu:         0.0
 (Enter C:\G09W\l702.exe)
 L702 exits ... SP integral derivatives will be done elsewhere.
 Leave Link  702 at Thu Mar 19 18:15:07 2026, MaxMem=   536870912 cpu:         0.0
 (Enter C:\G09W\l703.exe)
 Compute integral first derivatives, UseDBF=F ICtDFT=           0.
 Integral derivatives from FoFJK, PRISM(SPDF).
 Calling FoFJK, ICntrl=      2127 FMM=F ISym2X=0 I1Cent= 0 IOpClX= 0 NMat=1 NMatS=1 NMatT=0.
 FoFJK:  IHMeth= 1 ICntrl=    2127 DoSepK=F KAlg= 0 I1Cent=   0 FoldK=F
 IRaf=         0 NMat=   1 IRICut=       1 DoRegI=T DoRafI=F ISym2E= 0.
 FoFCou: FMM=F IPFlag=           0 FMFlag=      100000 FMFlg1=         800
         NFxFlg=           0 DoJE=F BraDBF=F KetDBF=F FulRan=T
         wScrn=  0.000000 ICntrl=    2127 IOpCl=  0 I1Cent=           0 NGrid=           0
         NMat0=    1 NMatS0=      1 NMatT0=    0 NMatD0=    1 NMtDS0=    0 NMtDT0=    0
 Symmetry not used in FoFCou.
 Leave Link  703 at Thu Mar 19 18:15:08 2026, MaxMem=   536870912 cpu:         1.0
 (Enter C:\G09W\l716.exe)
 Dipole        = 4.69733307D-07-2.35995803D-01-1.07688559D-06
 ***** Axes restored to original set *****
 -------------------------------------------------------------------
 Center     Atomic                   Forces (Hartrees/Bohr)
 Number     Number              X              Y              Z
 -------------------------------------------------------------------
      1        6           0.004245016   -0.000520303   -0.000003799
      2        6          -0.004240076   -0.000557292    0.000045060
      3        6           0.002646632    0.003576551   -0.000152252
      4        8           0.000029420   -0.006438201    0.000247453
      5        6          -0.002679316    0.003553356   -0.000121652
      6        1          -0.000522048    0.000480289   -0.000015508
      7        1           0.000517706    0.000484791   -0.000021671
      8        1           0.000202926   -0.000288739    0.000010019
      9        1          -0.000200260   -0.000290451    0.000012350
 -------------------------------------------------------------------
 Cartesian Forces:  Max     0.006438201 RMS     0.002099294
 Leave Link  716 at Thu Mar 19 18:15:09 2026, MaxMem=   536870912 cpu:         0.0
 (Enter C:\G09W\l103.exe)

 GradGradGradGradGradGradGradGradGradGradGradGradGradGradGradGradGradGrad
 Berny optimization.
 Using GEDIIS/GDIIS optimizer.
 FormGI is forming the generalized inverse of G from B-inverse, IUseBI=4.
 Internal  Forces:  Max     0.003453364 RMS     0.001068164
 Search for a local minimum.
 Step number   2 out of a maximum of   48
 All quantities printed in internal units (Hartrees-Bohrs-Radians)
 RMS Force = .10682D-02 SwitMx=.10000D-02 MixMth= 1
 Mixed Optimization -- RFO/linear search
 Update second derivatives using D2CorX and points    1    2
 DE= -5.16D-04 DEPred=-5.22D-04 R= 9.87D-01
 TightC=F SS=  1.41D+00  RLast= 4.89D-02 DXNew= 5.0454D-01 1.4682D-01
 Trust test= 9.87D-01 RLast= 4.89D-02 DXMaxT set to 3.00D-01
 ITU=  1  0
 Use linear search instead of GDIIS.
     Eigenvalues ---    0.02055   0.02171   0.02194   0.02315   0.02372
     Eigenvalues ---    0.02380   0.15832   0.16000   0.16000   0.16146
     Eigenvalues ---    0.22000   0.23908   0.35865   0.35898   0.35902
     Eigenvalues ---    0.35929   0.41139   0.43811   0.45310   0.52584
     Eigenvalues ---    0.53534
 RFO step:  Lambda=-1.72330729D-04 EMin= 2.05457161D-02
 Quartic linear search produced a step of -0.01263.
 Iteration  1 RMS(Cart)=  0.00337118 RMS(Int)=  0.00001292
 Iteration  2 RMS(Cart)=  0.00001437 RMS(Int)=  0.00000625
 Iteration  3 RMS(Cart)=  0.00000000 RMS(Int)=  0.00000625
 ITry= 1 IFail=0 DXMaxC= 1.29D-02 DCOld= 1.00D+10 DXMaxT= 3.00D-01 DXLimC= 3.00D+00 Rises=F
 Variable       Old X    -DE/DX   Delta X   Delta X   Delta X     New X
                                 (Linear)    (Quad)   (Total)
    R1        2.70438   0.00150  -0.00036   0.00855   0.00818   2.71255
    R2        2.57567  -0.00068   0.00030  -0.00555  -0.00526   2.57042
    R3        2.04321   0.00006  -0.00001   0.00033   0.00032   2.04353
    R4        2.57567  -0.00068   0.00030  -0.00555  -0.00526   2.57042
    R5        2.04321   0.00006  -0.00001   0.00033   0.00032   2.04353
    R6        2.57277   0.00139  -0.00008   0.00366   0.00359   2.57636
    R7        2.03933  -0.00004   0.00005  -0.00076  -0.00072   2.03861
    R8        2.57277   0.00139  -0.00008   0.00366   0.00359   2.57636
    R9        2.03933  -0.00004   0.00005  -0.00076  -0.00072   2.03861
    A1        1.85479  -0.00084  -0.00003  -0.00367  -0.00371   1.85107
    A2        2.22789  -0.00030   0.00001  -0.00261  -0.00258   2.22530
    A3        2.20051   0.00114   0.00001   0.00628   0.00630   2.20681
    A4        1.85479  -0.00084  -0.00003  -0.00367  -0.00371   1.85107
    A5        2.22789  -0.00030   0.00001  -0.00261  -0.00259   2.22530
    A6        2.20051   0.00114   0.00001   0.00628   0.00630   2.20681
    A7        1.92010   0.00256   0.00010   0.00979   0.00989   1.92999
    A8        2.33818  -0.00092   0.00000  -0.00336  -0.00336   2.33482
    A9        2.02491  -0.00164  -0.00009  -0.00643  -0.00652   2.01838
   A10        1.87501  -0.00345  -0.00014  -0.01223  -0.01234   1.86266
   A11        1.92010   0.00256   0.00010   0.00979   0.00989   1.92999
   A12        2.33818  -0.00092   0.00000  -0.00336  -0.00336   2.33482
   A13        2.02491  -0.00164  -0.00009  -0.00643  -0.00652   2.01838
    D1        0.00000   0.00000   0.00000   0.00001   0.00001   0.00001
    D2        3.14159   0.00000   0.00000   0.00000   0.00000  -3.14159
    D3        3.14159   0.00000   0.00000   0.00000   0.00000  -3.14159
    D4        0.00000   0.00000   0.00000   0.00000   0.00000   0.00000
    D5        0.00000   0.00000   0.00000   0.00000   0.00000   0.00000
    D6       -3.14159   0.00000   0.00000   0.00000   0.00000   3.14159
    D7        3.14159   0.00000   0.00000   0.00000   0.00000  -3.14159
    D8        0.00000   0.00000   0.00000   0.00000   0.00000   0.00000
    D9        0.00001   0.00000   0.00000  -0.00001  -0.00001  -0.00001
   D10       -3.14159   0.00000   0.00000   0.00000   0.00000   3.14159
   D11       -3.14159   0.00000   0.00000  -0.00001  -0.00001   3.14159
   D12        0.00000   0.00000   0.00000   0.00000   0.00000   0.00000
   D13        0.00000   0.00000   0.00000   0.00001   0.00001   0.00000
   D14        3.14159   0.00000   0.00000   0.00000   0.00000  -3.14159
   D15        0.00000   0.00000   0.00000   0.00000   0.00000   0.00000
   D16       -3.14159   0.00000   0.00000   0.00000   0.00000   3.14159
         Item               Value     Threshold  Converged?
 Maximum Force            0.003453     0.000450     NO 
 RMS     Force            0.001068     0.000300     NO 
 Maximum Displacement     0.012891     0.001800     NO 
 RMS     Displacement     0.003374     0.001200     NO 
 Predicted change in Energy=-8.630744D-05
 Lowest energy point so far.  Saving SCF results.
 GradGradGradGradGradGradGradGradGradGradGradGradGradGradGradGradGradGrad

 Leave Link  103 at Thu Mar 19 18:15:09 2026, MaxMem=   536870912 cpu:         0.0
 (Enter C:\G09W\l202.exe)
                          Input orientation:                          
 ---------------------------------------------------------------------
 Center     Atomic      Atomic             Coordinates (Angstroms)
 Number     Number       Type             X           Y           Z
 ---------------------------------------------------------------------
      1          6           0        0.714329    0.739991   -0.032576
      2          6           0       -0.721054    0.733766   -0.024170
      3          6           0       -1.091345   -0.574013    0.028330
      4          8           0        0.006306   -1.382260    0.053222
      5          6           0        1.096540   -0.564525    0.015511
      6          1           0        1.368717    1.600121   -0.069441
      7          1           0       -1.383264    1.588186   -0.053325
      8          1           0       -2.044041   -1.079518    0.053230
      9          1           0        2.053810   -1.061746    0.029220
 ---------------------------------------------------------------------
                    Distance matrix (angstroms):
                    1          2          3          4          5
     1  C    0.000000
     2  C    1.435421   0.000000
     3  C    2.234005   1.360205   0.000000
     4  O    2.238885   2.238885   1.363349   0.000000
     5  C    1.360205   2.234005   2.187943   1.363349   0.000000
     6  H    1.081391   2.262689   3.284559   3.281129   2.183343
     7  H    2.262689   1.081391   2.183344   3.281129   3.284559
     8  H    3.305538   2.245949   1.078789   2.072577   3.182748
     9  H    2.245949   3.305538   3.182748   2.072577   1.078788
                    6          7          8          9
     6  H    0.000000
     7  H    2.752054   0.000000
     8  H    4.340787   2.750386   0.000000
     9  H    2.750386   4.340787   4.097960   0.000000
 Stoichiometry    C4H4O
 Framework group  C1[X(C4H4O)]
 Deg. of freedom    21
 Full point group                 C1      NOp   1
 RotChk:  IX=1 Diff= 1.93D-06
 Largest Abelian subgroup         C1      NOp   1
 Largest concise Abelian subgroup C1      NOp   1
                         Standard orientation:                         
 ---------------------------------------------------------------------
 Center     Atomic      Atomic             Coordinates (Angstroms)
 Number     Number       Type             X           Y           Z
 ---------------------------------------------------------------------
      1          6           0       -0.717710   -0.959814    0.000001
      2          6           0        0.717711   -0.959813   -0.000002
      3          6           0        1.093971    0.347316    0.000002
      4          8           0       -0.000001    1.160917   -0.000001
      5          6           0       -1.093972    0.347315    0.000000
      6          1           0       -1.376026   -1.817734    0.000002
      7          1           0        1.376028   -1.817732   -0.000004
      8          1           0        2.048979    0.849057    0.000003
      9          1           0       -2.048981    0.849054   -0.000001
 ---------------------------------------------------------------------
 Rotational constants (GHZ):      9.4704047      9.2525037      4.6800931
 Leave Link  202 at Thu Mar 19 18:15:09 2026, MaxMem=   536870912 cpu:         0.0
 (Enter C:\G09W\l301.exe)
 Standard basis: 6-31G(d) (6D, 7F)
 Ernie: Thresh=  0.10000D-02 Tol=  0.10000D-05 Strict=F.
 There are    83 symmetry adapted cartesian basis functions of A   symmetry.
 There are    83 symmetry adapted basis functions of A   symmetry.
    83 basis functions,   156 primitive gaussians,    83 cartesian basis functions
    18 alpha electrons       18 beta electrons
       nuclear repulsion energy       160.7628287378 Hartrees.
 IExCor=  402 DFT=T Ex+Corr=B3LYP ExCW=0 ScaHFX=  0.200000
 ScaDFX=  0.800000  0.720000  1.000000  0.810000 ScalE2=  1.000000  1.000000
 IRadAn=      0 IRanWt=     -1 IRanGd=            0 ICorTp=0 IEmpDi=  4
 NAtoms=    9 NActive=    9 NUniq=    9 SFac= 1.00D+00 NAtFMM=   60 NAOKFM=F Big=F
 Integral buffers will be    131072 words long.
 Raffenetti 2 integral format.
 Two-electron integral symmetry is turned on.
 Leave Link  301 at Thu Mar 19 18:15:10 2026, MaxMem=   536870912 cpu:         0.0
 (Enter C:\G09W\l302.exe)
 NPDir=0 NMtPBC=     1 NCelOv=     1 NCel=       1 NClECP=     1 NCelD=      1
         NCelK=      1 NCelE2=     1 NClLst=     1 CellRange=     0.0.
 One-electron integrals computed using PRISM.
 NBasis=    83 RedAO= T EigKep=  1.15D-03  NBF=    83
 NBsUse=    83 1.00D-06 EigRej= -1.00D+00 NBFU=    83
 Precomputing XC quadrature grid using
 IXCGrd= 4 IRadAn=           0 IRanWt=          -1 IRanGd=           0 AccXCQ= 0.00D+00.
 Generated NRdTot=       0 NPtTot=           0 NUsed=           0 NTot=          32
 NSgBfM=    83    83    83    83    83 MxSgAt=     9 MxSgA2=     9.
 Leave Link  302 at Thu Mar 19 18:15:10 2026, MaxMem=   536870912 cpu:         0.0
 (Enter C:\G09W\l303.exe)
 DipDrv:  MaxL=1.
 Leave Link  303 at Thu Mar 19 18:15:10 2026, MaxMem=   536870912 cpu:         0.0
 (Enter C:\G09W\l401.exe)
 Initial guess from the checkpoint file:  "furan_rdkit.chk"
 B after Tr=     0.000000    0.000000    0.000000
         Rot=    1.000000    0.000000    0.000000    0.000001 Ang=   0.00 deg.
 Guess basis will be translated and rotated to current coordinates.
 JPrj=2 DoOrth=T DoCkMO=T.
 Leave Link  401 at Thu Mar 19 18:15:10 2026, MaxMem=   536870912 cpu:         0.0
 (Enter C:\G09W\l502.exe)
 Closed shell SCF:
 Using DIIS extrapolation, IDIIS=  1040.
 Integral symmetry usage will be decided dynamically.
 Keep R1 ints in memory in canonical form, NReq=7020585.
 IVT=       40342 IEndB=       40342 NGot=   536870912 MDV=   530752730
 LenX=   530752730 LenY=   530745400
 Requested convergence on RMS density matrix=1.00D-08 within 128 cycles.
 Requested convergence on MAX density matrix=1.00D-06.
 Requested convergence on             energy=1.00D-06.
 No special actions if energy rises.
 FoFCou: FMM=F IPFlag=           0 FMFlag=           0 FMFlg1=           0
         NFxFlg=           0 DoJE=F BraDBF=F KetDBF=F FulRan=T
         wScrn=  0.000000 ICntrl=     600 IOpCl=  0 I1Cent=           0 NGrid=           0
         NMat0=    1 NMatS0=   3486 NMatT0=    0 NMatD0=    1 NMtDS0=    0 NMtDT0=    0
 Symmetry not used in FoFCou.

 Cycle   1  Pass 1  IDiag  1:
 E= -230.020534716238    
 DIIS: error= 4.31D-04 at cycle   1 NSaved=   1.
 NSaved= 1 IEnMin= 1 EnMin= -230.020534716238     IErMin= 1 ErrMin= 4.31D-04
 ErrMax= 4.31D-04  0.00D+00 EMaxC= 1.00D-01 BMatC= 2.33D-05 BMatP= 2.33D-05
 IDIUse=3 WtCom= 9.96D-01 WtEn= 4.31D-03
 Coeff-Com:  0.100D+01
 Coeff-En:   0.100D+01
 Coeff:      0.100D+01
 Gap=     1.488 Goal=   None    Shift=    0.000
 RMSDP=1.12D-04 MaxDP=1.65D-03              OVMax= 2.52D-03

 Cycle   2  Pass 1  IDiag  1:
 E= -230.020577151136     Delta-E=       -0.000042434899 Rises=F Damp=F
 DIIS: error= 1.12D-04 at cycle   2 NSaved=   2.
 NSaved= 2 IEnMin= 2 EnMin= -230.020577151136     IErMin= 2 ErrMin= 1.12D-04
 ErrMax= 1.12D-04  0.00D+00 EMaxC= 1.00D-01 BMatC= 4.95D-07 BMatP= 2.33D-05
 IDIUse=3 WtCom= 9.99D-01 WtEn= 1.12D-03
 Coeff-Com: -0.327D-01 0.103D+01
 Coeff-En:   0.000D+00 0.100D+01
 Coeff:     -0.327D-01 0.103D+01
 Gap=     0.244 Goal=   None    Shift=    0.000
 RMSDP=2.12D-05 MaxDP=2.87D-04 DE=-4.24D-05 OVMax= 9.43D-04

 Cycle   3  Pass 1  IDiag  1:
 E= -230.020577208901     Delta-E=       -0.000000057765 Rises=F Damp=F
 DIIS: error= 1.17D-04 at cycle   3 NSaved=   3.
 NSaved= 3 IEnMin= 3 EnMin= -230.020577208901     IErMin= 2 ErrMin= 1.12D-04
 ErrMax= 1.17D-04  0.00D+00 EMaxC= 1.00D-01 BMatC= 7.49D-07 BMatP= 4.95D-07
 IDIUse=3 WtCom= 4.81D-01 WtEn= 5.19D-01
 Coeff-Com: -0.376D-01 0.594D+00 0.443D+00
 Coeff-En:   0.000D+00 0.474D+00 0.526D+00
 Coeff:     -0.181D-01 0.532D+00 0.486D+00
 Gap=     0.244 Goal=   None    Shift=    0.000
 RMSDP=1.23D-05 MaxDP=2.02D-04 DE=-5.78D-08 OVMax= 4.27D-04

 Cycle   4  Pass 1  IDiag  1:
 E= -230.020577884256     Delta-E=       -0.000000675355 Rises=F Damp=F
 DIIS: error= 4.33D-05 at cycle   4 NSaved=   4.
 NSaved= 4 IEnMin= 4 EnMin= -230.020577884256     IErMin= 4 ErrMin= 4.33D-05
 ErrMax= 4.33D-05  0.00D+00 EMaxC= 1.00D-01 BMatC= 8.30D-08 BMatP= 4.95D-07
 IDIUse=1 WtCom= 1.00D+00 WtEn= 0.00D+00
 Coeff-Com: -0.126D-01 0.151D+00 0.270D+00 0.592D+00
 Coeff:     -0.126D-01 0.151D+00 0.270D+00 0.592D+00
 Gap=     0.244 Goal=   None    Shift=    0.000
 RMSDP=4.04D-06 MaxDP=6.59D-05 DE=-6.75D-07 OVMax= 1.73D-04

 Cycle   5  Pass 1  IDiag  1:
 E= -230.020577962011     Delta-E=       -0.000000077755 Rises=F Damp=F
 DIIS: error= 1.73D-05 at cycle   5 NSaved=   5.
 NSaved= 5 IEnMin= 5 EnMin= -230.020577962011     IErMin= 5 ErrMin= 1.73D-05
 ErrMax= 1.73D-05  0.00D+00 EMaxC= 1.00D-01 BMatC= 1.25D-08 BMatP= 8.30D-08
 IDIUse=1 WtCom= 1.00D+00 WtEn= 0.00D+00
 Coeff-Com: -0.377D-02 0.351D-01 0.127D+00 0.377D+00 0.465D+00
 Coeff:     -0.377D-02 0.351D-01 0.127D+00 0.377D+00 0.465D+00
 Gap=     0.244 Goal=   None    Shift=    0.000
 RMSDP=1.26D-06 MaxDP=3.29D-05 DE=-7.78D-08 OVMax= 5.60D-05

 Cycle   6  Pass 1  IDiag  1:
 E= -230.020577972276     Delta-E=       -0.000000010265 Rises=F Damp=F
 DIIS: error= 3.32D-06 at cycle   6 NSaved=   6.
 NSaved= 6 IEnMin= 6 EnMin= -230.020577972276     IErMin= 6 ErrMin= 3.32D-06
 ErrMax= 3.32D-06  0.00D+00 EMaxC= 1.00D-01 BMatC= 8.64D-10 BMatP= 1.25D-08
 IDIUse=1 WtCom= 1.00D+00 WtEn= 0.00D+00
 Coeff-Com:  0.277D-03-0.122D-01 0.109D-01 0.789D-01 0.245D+00 0.677D+00
 Coeff:      0.277D-03-0.122D-01 0.109D-01 0.789D-01 0.245D+00 0.677D+00
 Gap=     0.244 Goal=   None    Shift=    0.000
 RMSDP=3.25D-07 MaxDP=6.15D-06 DE=-1.03D-08 OVMax= 8.38D-06

 Cycle   7  Pass 1  IDiag  1:
 E= -230.020577972931     Delta-E=       -0.000000000655 Rises=F Damp=F
 DIIS: error= 6.53D-07 at cycle   7 NSaved=   7.
 NSaved= 7 IEnMin= 7 EnMin= -230.020577972931     IErMin= 7 ErrMin= 6.53D-07
 ErrMax= 6.53D-07  0.00D+00 EMaxC= 1.00D-01 BMatC= 4.05D-11 BMatP= 8.64D-10
 IDIUse=1 WtCom= 1.00D+00 WtEn= 0.00D+00
 Coeff-Com:  0.438D-03-0.861D-02-0.531D-02 0.718D-02 0.859D-01 0.287D+00
 Coeff-Com:  0.633D+00
 Coeff:      0.438D-03-0.861D-02-0.531D-02 0.718D-02 0.859D-01 0.287D+00
 Coeff:      0.633D+00
 Gap=     0.244 Goal=   None    Shift=    0.000
 RMSDP=9.04D-08 MaxDP=9.13D-07 DE=-6.55D-10 OVMax= 2.10D-06

 Cycle   8  Pass 1  IDiag  1:
 E= -230.020577972974     Delta-E=       -0.000000000043 Rises=F Damp=F
 DIIS: error= 1.12D-07 at cycle   8 NSaved=   8.
 NSaved= 8 IEnMin= 8 EnMin= -230.020577972974     IErMin= 8 ErrMin= 1.12D-07
 ErrMax= 1.12D-07  0.00D+00 EMaxC= 1.00D-01 BMatC= 1.01D-12 BMatP= 4.05D-11
 IDIUse=1 WtCom= 1.00D+00 WtEn= 0.00D+00
 Coeff-Com:  0.319D-04-0.217D-03-0.157D-02-0.355D-02-0.842D-03-0.132D-01
 Coeff-Com:  0.969D-01 0.922D+00
 Coeff:      0.319D-04-0.217D-03-0.157D-02-0.355D-02-0.842D-03-0.132D-01
 Coeff:      0.969D-01 0.922D+00
 Gap=     0.244 Goal=   None    Shift=    0.000
 RMSDP=1.31D-08 MaxDP=1.97D-07 DE=-4.33D-11 OVMax= 3.99D-07

 Cycle   9  Pass 1  IDiag  1:
 E= -230.020577972977     Delta-E=       -0.000000000003 Rises=F Damp=F
 DIIS: error= 9.56D-09 at cycle   9 NSaved=   9.
 NSaved= 9 IEnMin= 9 EnMin= -230.020577972977     IErMin= 9 ErrMin= 9.56D-09
 ErrMax= 9.56D-09  0.00D+00 EMaxC= 1.00D-01 BMatC= 6.77D-15 BMatP= 1.01D-12
 IDIUse=1 WtCom= 1.00D+00 WtEn= 0.00D+00
 Coeff-Com: -0.673D-06 0.763D-04-0.162D-03-0.515D-03-0.106D-02-0.634D-02
 Coeff-Com:  0.480D-02 0.126D+00 0.877D+00
 Coeff:     -0.673D-06 0.763D-04-0.162D-03-0.515D-03-0.106D-02-0.634D-02
 Coeff:      0.480D-02 0.126D+00 0.877D+00
 Gap=     0.244 Goal=   None    Shift=    0.000
 RMSDP=1.52D-09 MaxDP=1.51D-08 DE=-3.24D-12 OVMax= 3.76D-08

 SCF Done:  E(RB3LYP) =  -230.020577973     A.U. after    9 cycles
            NFock=  9  Conv=0.15D-08     -V/T= 2.0093
 KE= 2.278958840866D+02 PE=-8.571491894643D+02 EE= 2.384698986669D+02
 Leave Link  502 at Thu Mar 19 18:15:15 2026, MaxMem=   536870912 cpu:         4.0
 (Enter C:\G09W\l701.exe)
 Compute integral first derivatives.
 ... and contract with generalized density number  0.
 Leave Link  701 at Thu Mar 19 18:15:15 2026, MaxMem=   536870912 cpu:         0.0
 (Enter C:\G09W\l702.exe)
 L702 exits ... SP integral derivatives will be done elsewhere.
 Leave Link  702 at Thu Mar 19 18:15:16 2026, MaxMem=   536870912 cpu:         0.0
 (Enter C:\G09W\l703.exe)
 Compute integral first derivatives, UseDBF=F ICtDFT=           0.
 Integral derivatives from FoFJK, PRISM(SPDF).
 Calling FoFJK, ICntrl=      2127 FMM=F ISym2X=0 I1Cent= 0 IOpClX= 0 NMat=1 NMatS=1 NMatT=0.
 FoFJK:  IHMeth= 1 ICntrl=    2127 DoSepK=F KAlg= 0 I1Cent=   0 FoldK=F
 IRaf=         0 NMat=   1 IRICut=       1 DoRegI=T DoRafI=F ISym2E= 0.
 FoFCou: FMM=F IPFlag=           0 FMFlag=      100000 FMFlg1=         800
         NFxFlg=           0 DoJE=F BraDBF=F KetDBF=F FulRan=T
         wScrn=  0.000000 ICntrl=    2127 IOpCl=  0 I1Cent=           0 NGrid=           0
         NMat0=    1 NMatS0=      1 NMatT0=    0 NMatD0=    1 NMtDS0=    0 NMtDT0=    0
 Symmetry not used in FoFCou.
 Leave Link  703 at Thu Mar 19 18:15:17 2026, MaxMem=   536870912 cpu:         1.0
 (Enter C:\G09W\l716.exe)
 Dipole        = 1.47317216D-07-2.47541286D-01-3.62220656D-08
 ***** Axes restored to original set *****
 -------------------------------------------------------------------
 Center     Atomic                   Forces (Hartrees/Bohr)
 Number     Number              X              Y              Z
 -------------------------------------------------------------------
      1        6           0.000357368    0.000504884   -0.000021933
      2        6          -0.000361964    0.000501812   -0.000016746
      3        6          -0.000615353   -0.000067311    0.000005438
      4        8           0.000001966   -0.000425382    0.000016849
      5        6           0.000615854   -0.000061949   -0.000001112
      6        1          -0.000273552   -0.000010503    0.000001946
      7        1           0.000273676   -0.000008171   -0.000001106
      8        1          -0.000357019   -0.000218243    0.000010386
      9        1           0.000359024   -0.000215138    0.000006278
 -------------------------------------------------------------------
 Cartesian Forces:  Max     0.000615854 RMS     0.000286364
 Leave Link  716 at Thu Mar 19 18:15:17 2026, MaxMem=   536870912 cpu:         0.0
 (Enter C:\G09W\l103.exe)

 GradGradGradGradGradGradGradGradGradGradGradGradGradGradGradGradGradGrad
 Berny optimization.
 Using GEDIIS/GDIIS optimizer.
 FormGI is forming the generalized inverse of G from B-inverse, IUseBI=4.
 Internal  Forces:  Max     0.000661530 RMS     0.000259835
 Search for a local minimum.
 Step number   3 out of a maximum of   48
 All quantities printed in internal units (Hartrees-Bohrs-Radians)
 RMS Force = .25983D-03 SwitMx=.10000D-02 MixMth= 2
 Mixed Optimization -- En-DIIS/RFO-DIIS
 Update second derivatives using D2CorX and points    1    2    3
 DE= -8.29D-05 DEPred=-8.63D-05 R= 9.60D-01
 TightC=F SS=  1.41D+00  RLast= 2.69D-02 DXNew= 5.0454D-01 8.0784D-02
 Trust test= 9.60D-01 RLast= 2.69D-02 DXMaxT set to 3.00D-01
 ITU=  1  1  0
 Use linear search instead of GDIIS.
     Eigenvalues ---    0.02056   0.02173   0.02195   0.02316   0.02372
     Eigenvalues ---    0.02380   0.14893   0.16000   0.16000   0.16070
     Eigenvalues ---    0.22000   0.26002   0.35865   0.35897   0.35902
     Eigenvalues ---    0.36434   0.41401   0.43772   0.44418   0.52574
     Eigenvalues ---    0.54510
 RFO step:  Lambda=-6.17486310D-06 EMin= 2.05606888D-02
 Quartic linear search produced a step of -0.03693.
 Iteration  1 RMS(Cart)=  0.00102284 RMS(Int)=  0.00000068
 Iteration  2 RMS(Cart)=  0.00000062 RMS(Int)=  0.00000022
 ITry= 1 IFail=0 DXMaxC= 2.41D-03 DCOld= 1.00D+10 DXMaxT= 3.00D-01 DXLimC= 3.00D+00 Rises=F
 Variable       Old X    -DE/DX   Delta X   Delta X   Delta X     New X
                                 (Linear)    (Quad)   (Total)
    R1        2.71255   0.00039  -0.00030   0.00138   0.00108   2.71363
    R2        2.57042   0.00056   0.00019   0.00070   0.00089   2.57131
    R3        2.04353  -0.00017  -0.00001  -0.00044  -0.00046   2.04308
    R4        2.57042   0.00056   0.00019   0.00070   0.00089   2.57131
    R5        2.04353  -0.00017  -0.00001  -0.00044  -0.00046   2.04308
    R6        2.57636   0.00066  -0.00013   0.00149   0.00136   2.57771
    R7        2.03861   0.00042   0.00003   0.00107   0.00110   2.03971
    R8        2.57636   0.00066  -0.00013   0.00149   0.00136   2.57771
    R9        2.03861   0.00042   0.00003   0.00107   0.00110   2.03971
    A1        1.85107   0.00014   0.00014   0.00021   0.00034   1.85142
    A2        2.22530  -0.00029   0.00010  -0.00172  -0.00162   2.22368
    A3        2.20681   0.00014  -0.00023   0.00151   0.00128   2.20809
    A4        1.85107   0.00014   0.00014   0.00021   0.00034   1.85142
    A5        2.22530  -0.00029   0.00010  -0.00172  -0.00162   2.22368
    A6        2.20681   0.00014  -0.00023   0.00151   0.00128   2.20809
    A7        1.92999  -0.00026  -0.00037  -0.00034  -0.00070   1.92929
    A8        2.33482   0.00015   0.00012   0.00044   0.00056   2.33538
    A9        2.01838   0.00010   0.00024  -0.00010   0.00014   2.01852
   A10        1.86266   0.00023   0.00046   0.00026   0.00071   1.86337
   A11        1.92999  -0.00026  -0.00037  -0.00034  -0.00070   1.92929
   A12        2.33482   0.00015   0.00012   0.00044   0.00056   2.33538
   A13        2.01838   0.00010   0.00024  -0.00010   0.00014   2.01852
    D1        0.00001   0.00000   0.00000  -0.00001  -0.00001  -0.00001
    D2       -3.14159   0.00000   0.00000  -0.00001  -0.00001   3.14159
    D3       -3.14159   0.00000   0.00000  -0.00001  -0.00001   3.14159
    D4        0.00000   0.00000   0.00000   0.00000   0.00000   0.00000
    D5        0.00000   0.00000   0.00000   0.00001   0.00001   0.00000
    D6        3.14159   0.00000   0.00000   0.00001   0.00001  -3.14159
    D7       -3.14159   0.00000   0.00000   0.00000   0.00000   3.14159
    D8        0.00000   0.00000   0.00000   0.00000   0.00000   0.00000
    D9       -0.00001   0.00000   0.00000   0.00001   0.00001   0.00001
   D10        3.14159   0.00000   0.00000   0.00000   0.00000  -3.14159
   D11        3.14159   0.00000   0.00000   0.00001   0.00001  -3.14159
   D12        0.00000   0.00000   0.00000   0.00000   0.00000   0.00000
   D13        0.00000   0.00000   0.00000  -0.00001  -0.00001  -0.00001
   D14       -3.14159   0.00000   0.00000   0.00000   0.00000   3.14159
   D15        0.00000   0.00000   0.00000   0.00000   0.00000   0.00000
   D16        3.14159   0.00000   0.00000   0.00000   0.00000  -3.14159
         Item               Value     Threshold  Converged?
 Maximum Force            0.000662     0.000450     NO 
 RMS     Force            0.000260     0.000300     YES
 Maximum Displacement     0.002407     0.001800     NO 
 RMS     Displacement     0.001023     0.001200     YES
 Predicted change in Energy=-3.209734D-06
 Lowest energy point so far.  Saving SCF results.
 GradGradGradGradGradGradGradGradGradGradGradGradGradGradGradGradGradGrad

 Leave Link  103 at Thu Mar 19 18:15:17 2026, MaxMem=   536870912 cpu:         0.0
 (Enter C:\G09W\l202.exe)
                          Input orientation:                          
 ---------------------------------------------------------------------
 Center     Atomic      Atomic             Coordinates (Angstroms)
 Number     Number       Type             X           Y           Z
 ---------------------------------------------------------------------
      1          6           0        0.714613    0.740089   -0.032585
      2          6           0       -0.721339    0.733861   -0.024169
      3          6           0       -1.092211   -0.574246    0.028340
      4          8           0        0.006308   -1.382527    0.053236
      5          6           0        1.097407   -0.564749    0.015516
      6          1           0        1.367457    1.601087   -0.069477
      7          1           0       -1.382013    1.589163   -0.053363
      8          1           0       -2.045308   -1.080231    0.053259
      9          1           0        2.055084   -1.062447    0.029244
 ---------------------------------------------------------------------
                    Distance matrix (angstroms):
                    1          2          3          4          5
     1  C    0.000000
     2  C    1.435990   0.000000
     3  C    2.235128   1.360678   0.000000
     4  O    2.239321   2.239321   1.364068   0.000000
     5  C    1.360678   2.235128   2.189675   1.364068   0.000000
     6  H    1.081150   2.262123   3.285058   3.281728   2.184262
     7  H    2.262123   1.081150   2.184262   3.281728   3.285058
     8  H    3.307280   2.247181   1.079369   2.073767   3.184934
     9  H    2.247181   3.307280   3.184934   2.073767   1.079369
                    6          7          8          9
     6  H    0.000000
     7  H    2.749544   0.000000
     8  H    4.341832   2.752634   0.000000
     9  H    2.752634   4.341832   4.100501   0.000000
 Stoichiometry    C4H4O
 Framework group  C1[X(C4H4O)]
 Deg. of freedom    21
 Full point group                 C1      NOp   1
 RotChk:  IX=1 Diff= 1.79D-06
 Largest Abelian subgroup         C1      NOp   1
 Largest concise Abelian subgroup C1      NOp   1
                         Standard orientation:                         
 ---------------------------------------------------------------------
 Center     Atomic      Atomic             Coordinates (Angstroms)
 Number     Number       Type             X           Y           Z
 ---------------------------------------------------------------------
      1          6           0       -0.717995   -0.959999   -0.000002
      2          6           0        0.717995   -0.959999    0.000002
      3          6           0        1.094838    0.347455   -0.000002
      4          8           0        0.000000    1.161095    0.000001
      5          6           0       -1.094838    0.347455    0.000000
      6          1           0       -1.374772   -1.818794   -0.000003
      7          1           0        1.374771   -1.818795    0.000004
      8          1           0        2.050251    0.849673   -0.000004
      9          1           0       -2.050250    0.849675    0.000001
 ---------------------------------------------------------------------
 Rotational constants (GHZ):      9.4599715      9.2478749      4.6763604
 Leave Link  202 at Thu Mar 19 18:15:17 2026, MaxMem=   536870912 cpu:         0.0
 (Enter C:\G09W\l301.exe)
 Standard basis: 6-31G(d) (6D, 7F)
 Ernie: Thresh=  0.10000D-02 Tol=  0.10000D-05 Strict=F.
 There are    83 symmetry adapted cartesian basis functions of A   symmetry.
 There are    83 symmetry adapted basis functions of A   symmetry.
[...]
 (Enter C:\G09W\l716.exe)
 Dipole        =-7.99171018D-08-2.48472373D-01-7.08450571D-07
 ***** Axes restored to original set *****
 -------------------------------------------------------------------
 Center     Atomic                   Forces (Hartrees/Bohr)
 Number     Number              X              Y              Z
 -------------------------------------------------------------------
      1        6          -0.000080781   -0.000057152    0.000003289
      2        6           0.000081296   -0.000056500    0.000000904
      3        6          -0.000096931    0.000072180   -0.000001362
      4        8           0.000000340   -0.000070413    0.000002161
      5        6           0.000096254    0.000072956   -0.000003474
      6        1          -0.000073294    0.000049781   -0.000001447
      7        1           0.000072834    0.000050409   -0.000002493
      8        1           0.000043968   -0.000030439    0.000001006
      9        1          -0.000043685   -0.000030822    0.000001415
 -------------------------------------------------------------------
 Cartesian Forces:  Max     0.000096931 RMS     0.000052775
 Leave Link  716 at Thu Mar 19 18:15:28 2026, MaxMem=   536870912 cpu:         0.0
 (Enter C:\G09W\l103.exe)

 GradGradGradGradGradGradGradGradGradGradGradGradGradGradGradGradGradGrad
 Berny optimization.
 Using GEDIIS/GDIIS optimizer.
 FormGI is forming the generalized inverse of G from B-inverse, IUseBI=4.
 Internal  Forces:  Max     0.000133477 RMS     0.000043622
 Search for a local minimum.
 Step number   4 out of a maximum of   48
 All quantities printed in internal units (Hartrees-Bohrs-Radians)
 RMS Force = .43622D-04 SwitMx=.10000D-02 MixMth= 2
 Mixed Optimization -- En-DIIS/RFO-DIIS
 Swapping is turned off.
 Update second derivatives using D2CorX and points    1    2    3    4
 DE= -3.50D-06 DEPred=-3.21D-06 R= 1.09D+00
 TightC=F SS=  1.41D+00  RLast= 4.50D-03 DXNew= 5.0454D-01 1.3485D-02
 Trust test= 1.09D+00 RLast= 4.50D-03 DXMaxT set to 3.00D-01
 ITU=  1  1  1  0
     Eigenvalues ---    0.02056   0.02173   0.02195   0.02316   0.02372
     Eigenvalues ---    0.02380   0.12346   0.16000   0.16000   0.16070
     Eigenvalues ---    0.22000   0.25904   0.35865   0.35881   0.35902
     Eigenvalues ---    0.36805   0.43347   0.43780   0.44857   0.52575
     Eigenvalues ---    0.56139
 En-DIIS/RFO-DIIS IScMMF=        0 using points:     4    3
 RFO step:  Lambda=-1.65299702D-07.
 NNeg= 0 NP= 2 Switch=  2.50D-03 Rises=F DC=  3.50D-06 SmlDif=  1.00D-05
 RMS Error=  0.1031010363D-03 NUsed= 2 EDIIS=F
 DidBck=F Rises=F RFO-DIIS coefs:    1.09999   -0.09999
 Iteration  1 RMS(Cart)=  0.00039754 RMS(Int)=  0.00000014
 Iteration  2 RMS(Cart)=  0.00000014 RMS(Int)=  0.00000000
 ITry= 1 IFail=0 DXMaxC= 1.41D-03 DCOld= 1.00D+10 DXMaxT= 3.00D-01 DXLimC= 3.00D+00 Rises=F
 Variable       Old X    -DE/DX   Delta X   Delta X   Delta X     New X
                                 (Linear)    (Quad)   (Total)
    R1        2.71363  -0.00013   0.00011  -0.00036  -0.00025   2.71338
    R2        2.57131   0.00000   0.00009  -0.00010  -0.00001   2.57130
    R3        2.04308   0.00000  -0.00005   0.00001  -0.00004   2.04304
    R4        2.57131   0.00000   0.00009  -0.00010  -0.00001   2.57130
    R5        2.04308   0.00000  -0.00005   0.00001  -0.00004   2.04304
    R6        2.57771   0.00005   0.00014   0.00007   0.00020   2.57792
    R7        2.03971  -0.00002   0.00011  -0.00013  -0.00002   2.03969
    R8        2.57771   0.00005   0.00014   0.00007   0.00020   2.57792
    R9        2.03971  -0.00002   0.00011  -0.00013  -0.00002   2.03969
    A1        1.85142   0.00004   0.00003   0.00010   0.00013   1.85155
    A2        2.22368  -0.00011  -0.00016  -0.00061  -0.00078   2.22290
    A3        2.20809   0.00007   0.00013   0.00052   0.00065   2.20873
    A4        1.85142   0.00004   0.00003   0.00010   0.00013   1.85155
    A5        2.22368  -0.00011  -0.00016  -0.00061  -0.00078   2.22290
    A6        2.20809   0.00007   0.00013   0.00052   0.00065   2.20873
    A7        1.92929  -0.00003  -0.00007  -0.00008  -0.00015   1.92913
    A8        2.33538   0.00006   0.00006   0.00036   0.00042   2.33580
    A9        2.01852  -0.00003   0.00001  -0.00028  -0.00027   2.01825
   A10        1.86337  -0.00002   0.00007  -0.00003   0.00004   1.86341
   A11        1.92929  -0.00003  -0.00007  -0.00008  -0.00015   1.92913
   A12        2.33538   0.00006   0.00006   0.00036   0.00042   2.33580
   A13        2.01852  -0.00003   0.00001  -0.00028  -0.00027   2.01825
    D1       -0.00001   0.00000   0.00000   0.00002   0.00002   0.00001
    D2        3.14159   0.00000   0.00000   0.00001   0.00001  -3.14159
    D3        3.14159   0.00000   0.00000   0.00001   0.00001  -3.14159
    D4        0.00000   0.00000   0.00000   0.00000   0.00000   0.00000
    D5        0.00000   0.00000   0.00000  -0.00001  -0.00001  -0.00001
    D6       -3.14159   0.00000   0.00000  -0.00001  -0.00001   3.14159
    D7        3.14159   0.00000   0.00000   0.00000   0.00000   3.14159
    D8        0.00000   0.00000   0.00000   0.00000   0.00000   0.00000
    D9        0.00001   0.00000   0.00000  -0.00002  -0.00002  -0.00001
   D10       -3.14159   0.00000   0.00000  -0.00001  -0.00001   3.14159
   D11       -3.14159   0.00000   0.00000  -0.00001  -0.00001   3.14159
   D12        0.00000   0.00000   0.00000   0.00001   0.00000   0.00000
   D13       -0.00001   0.00000   0.00000   0.00002   0.00002   0.00001
   D14        3.14159   0.00000   0.00000   0.00000   0.00000  -3.14159
   D15        0.00000   0.00000   0.00000   0.00000   0.00000   0.00000
   D16       -3.14159   0.00000   0.00000  -0.00001  -0.00001   3.14159
         Item               Value     Threshold  Converged?
 Maximum Force            0.000133     0.000450     YES
 RMS     Force            0.000044     0.000300     YES
 Maximum Displacement     0.001410     0.001800     YES
 RMS     Displacement     0.000398     0.001200     YES
 Predicted change in Energy=-2.019670D-07
 Optimization completed.
    -- Stationary point found.
                           ----------------------------
                           !   Optimized Parameters   !
                           ! (Angstroms and Degrees)  !
 --------------------------                            --------------------------
 ! Name  Definition              Value          Derivative Info.                !
 --------------------------------------------------------------------------------
 ! R1    R(1,2)                  1.436          -DE/DX =   -0.0001              !
 ! R2    R(1,5)                  1.3607         -DE/DX =    0.0                 !
 ! R3    R(1,6)                  1.0812         -DE/DX =    0.0                 !
 ! R4    R(2,3)                  1.3607         -DE/DX =    0.0                 !
 ! R5    R(2,7)                  1.0812         -DE/DX =    0.0                 !
 ! R6    R(3,4)                  1.3641         -DE/DX =    0.0                 !
 ! R7    R(3,8)                  1.0794         -DE/DX =    0.0                 !
 ! R8    R(4,5)                  1.3641         -DE/DX =    0.0                 !
 ! R9    R(5,9)                  1.0794         -DE/DX =    0.0                 !
 ! A1    A(2,1,5)              106.0784         -DE/DX =    0.0                 !
 ! A2    A(2,1,6)              127.4075         -DE/DX =   -0.0001              !
 ! A3    A(5,1,6)              126.5141         -DE/DX =    0.0001              !
 ! A4    A(1,2,3)              106.0784         -DE/DX =    0.0                 !
 ! A5    A(1,2,7)              127.4075         -DE/DX =   -0.0001              !
 ! A6    A(3,2,7)              126.5141         -DE/DX =    0.0001              !
 ! A7    A(2,3,4)              110.5399         -DE/DX =    0.0                 !
 ! A8    A(2,3,8)              133.8073         -DE/DX =    0.0001              !
 ! A9    A(4,3,8)              115.6528         -DE/DX =    0.0                 !
 ! A10   A(3,4,5)              106.7634         -DE/DX =    0.0                 !
 ! A11   A(1,5,4)              110.5399         -DE/DX =    0.0                 !
 ! A12   A(1,5,9)              133.8073         -DE/DX =    0.0001              !
 ! A13   A(4,5,9)              115.6528         -DE/DX =    0.0                 !
 ! D1    D(5,1,2,3)             -0.0004         -DE/DX =    0.0                 !
 ! D2    D(5,1,2,7)           -180.0002         -DE/DX =    0.0                 !
 ! D3    D(6,1,2,3)           -180.0002         -DE/DX =    0.0                 !
 ! D4    D(6,1,2,7)              0.0001         -DE/DX =    0.0                 !
 ! D5    D(2,1,5,4)              0.0002         -DE/DX =    0.0                 !
 ! D6    D(2,1,5,9)            180.0002         -DE/DX =    0.0                 !
 ! D7    D(6,1,5,4)            180.0            -DE/DX =    0.0                 !
 ! D8    D(6,1,5,9)             -0.0001         -DE/DX =    0.0                 !
 ! D9    D(1,2,3,4)              0.0005         -DE/DX =    0.0                 !
 ! D10   D(1,2,3,8)            180.0001         -DE/DX =    0.0                 !
 ! D11   D(7,2,3,4)            180.0002         -DE/DX =    0.0                 !
 ! D12   D(7,2,3,8)             -0.0001         -DE/DX =    0.0                 !
 ! D13   D(2,3,4,5)             -0.0004         -DE/DX =    0.0                 !
 ! D14   D(8,3,4,5)           -180.0001         -DE/DX =    0.0                 !
 ! D15   D(3,4,5,1)              0.0001         -DE/DX =    0.0                 !
 ! D16   D(3,4,5,9)            180.0001         -DE/DX =    0.0                 !
 --------------------------------------------------------------------------------
 Lowest energy point so far.  Saving SCF results.
 GradGradGradGradGradGradGradGradGradGradGradGradGradGradGradGradGradGrad

 Largest change from initial coordinates is atom    2       0.009 Angstoms.
 Leave Link  103 at Thu Mar 19 18:15:28 2026, MaxMem=   536870912 cpu:         0.0
 (Enter C:\G09W\l202.exe)
                          Input orientation:                          
 ---------------------------------------------------------------------
 Center     Atomic      Atomic             Coordinates (Angstroms)
 Number     Number       Type             X           Y           Z
 ---------------------------------------------------------------------
      1          6           0        0.714613    0.740089   -0.032585
      2          6           0       -0.721339    0.733861   -0.024169
      3          6           0       -1.092211   -0.574246    0.028340
      4          8           0        0.006308   -1.382527    0.053236
      5          6           0        1.097407   -0.564749    0.015516
      6          1           0        1.367457    1.601087   -0.069477
      7          1           0       -1.382013    1.589163   -0.053363
      8          1           0       -2.045308   -1.080231    0.053259
      9          1           0        2.055084   -1.062447    0.029244
 ---------------------------------------------------------------------
                    Distance matrix (angstroms):
                    1          2          3          4          5
     1  C    0.000000
     2  C    1.435990   0.000000
     3  C    2.235128   1.360678   0.000000
     4  O    2.239321   2.239321   1.364068   0.000000
     5  C    1.360678   2.235128   2.189675   1.364068   0.000000
     6  H    1.081150   2.262123   3.285058   3.281728   2.184262
     7  H    2.262123   1.081150   2.184262   3.281728   3.285058
     8  H    3.307280   2.247181   1.079369   2.073767   3.184934
     9  H    2.247181   3.307280   3.184934   2.073767   1.079369
                    6          7          8          9
     6  H    0.000000
     7  H    2.749544   0.000000
     8  H    4.341832   2.752634   0.000000
     9  H    2.752634   4.341832   4.100501   0.000000
 Stoichiometry    C4H4O
 Framework group  C1[X(C4H4O)]
 Deg. of freedom    21
 Full point group                 C1      NOp   1
 RotChk:  IX=1 Diff= 1.91D-15
 Largest Abelian subgroup         C1      NOp   1
 Largest concise Abelian subgroup C1      NOp   1
                         Standard orientation:                         
 ---------------------------------------------------------------------
 Center     Atomic      Atomic             Coordinates (Angstroms)
 Number     Number       Type             X           Y           Z
 ---------------------------------------------------------------------
      1          6           0       -0.717995   -0.959999   -0.000002
      2          6           0        0.717995   -0.959999    0.000002
      3          6           0        1.094838    0.347455   -0.000002
      4          8           0        0.000000    1.161095    0.000001
      5          6           0       -1.094838    0.347455    0.000000
      6          1           0       -1.374772   -1.818794   -0.000003
      7          1           0        1.374771   -1.818795    0.000004
      8          1           0        2.050251    0.849673   -0.000004
      9          1           0       -2.050250    0.849675    0.000001
 ---------------------------------------------------------------------
 Rotational constants (GHZ):      9.4599715      9.2478749      4.6763604
 Leave Link  202 at Thu Mar 19 18:15:28 2026, MaxMem=   536870912 cpu:         0.0
 (Enter C:\G09W\l601.exe)
 Copying SCF densities to generalized density rwf, IOpCl= 0 IROHF=0.

 **********************************************************************

            Population analysis using the SCF density.

 **********************************************************************

 Orbital symmetries:
       Occupied  (A) (A) (A) (A) (A) (A) (A) (A) (A) (A) (A) (A)
                 (A) (A) (A) (A) (A) (A)
       Virtual   (A) (A) (A) (A) (A) (A) (A) (A) (A) (A) (A) (A)
                 (A) (A) (A) (A) (A) (A) (A) (A) (A) (A) (A) (A)
                 (A) (A) (A) (A) (A) (A) (A) (A) (A) (A) (A) (A)
                 (A) (A) (A) (A) (A) (A) (A) (A) (A) (A) (A) (A)
                 (A) (A) (A) (A) (A) (A) (A) (A) (A) (A) (A) (A)
                 (A) (A) (A) (A) (A)
 The electronic state is 1-A.
 Alpha  occ. eigenvalues --  -19.21136 -10.23162 -10.23161 -10.18444 -10.18403
 Alpha  occ. eigenvalues --   -1.10329  -0.79267  -0.73936  -0.59319  -0.56548
 Alpha  occ. eigenvalues --   -0.53648  -0.44172  -0.44172  -0.40758  -0.39346
 Alpha  occ. eigenvalues --   -0.36674  -0.27347  -0.22445
 Alpha virt. eigenvalues --    0.01969   0.07852   0.11753   0.14140   0.15501
 Alpha virt. eigenvalues --    0.16632   0.19601   0.20566   0.31409   0.37863
 Alpha virt. eigenvalues --    0.43329   0.51536   0.53358   0.58133   0.58183
 Alpha virt. eigenvalues --    0.58517   0.59287   0.61488   0.62909   0.67560
 Alpha virt. eigenvalues --    0.67948   0.80098   0.82831   0.84199   0.90748
 Alpha virt. eigenvalues --    0.90840   0.98223   0.98787   1.01644   1.03550
 Alpha virt. eigenvalues --    1.13359   1.13913   1.34884   1.37561   1.38522
 Alpha virt. eigenvalues --    1.39394   1.53564   1.55400   1.56613   1.57400
 Alpha virt. eigenvalues --    1.68070   1.84142   1.93100   2.01382   2.05480
 Alpha virt. eigenvalues --    2.08611   2.19750   2.21964   2.25997   2.26057
 Alpha virt. eigenvalues --    2.32021   2.39882   2.57390   2.62508   2.62918
 Alpha virt. eigenvalues --    2.70306   2.78258   2.93196   2.94845   3.10086
 Alpha virt. eigenvalues --    3.93772   4.14806   4.14930   4.28760   4.46254
          Condensed to atoms (all electrons):
               1          2          3          4          5          6
     1  C    4.909877   0.501247  -0.054617  -0.057797   0.593560   0.362556
     2  C    0.501247   4.909877   0.593560  -0.057797  -0.054617  -0.036176
     3  C   -0.054617   0.593560   4.828720   0.321203  -0.115282   0.005933
     4  O   -0.057797  -0.057797   0.321203   7.940091   0.321203   0.003411
     5  C    0.593560  -0.054617  -0.115282   0.321203   4.828720  -0.040266
     6  H    0.362556  -0.036176   0.005933   0.003411  -0.040266   0.567022
     7  H   -0.036176   0.362556  -0.040266   0.003411   0.005933  -0.002054
     8  H    0.003753  -0.045612   0.375656  -0.039780   0.006002  -0.000120
     9  H   -0.045612   0.003753   0.006002  -0.039780   0.375656  -0.000546
               7          8          9
     1  C   -0.036176   0.003753  -0.045612
     2  C    0.362556  -0.045612   0.003753
     3  C   -0.040266   0.375656   0.006002
     4  O    0.003411  -0.039780  -0.039780
     5  C    0.005933   0.006002   0.375656
     6  H   -0.002054  -0.000120  -0.000546
     7  H    0.567022  -0.000546  -0.000120
     8  H   -0.000546   0.546271  -0.000166
     9  H   -0.000120  -0.000166   0.546271
 Mulliken charges:
               1
     1  C   -0.176793
     2  C   -0.176793
     3  C    0.079091
     4  O   -0.394164
     5  C    0.079091
     6  H    0.140241
     7  H    0.140241
     8  H    0.154543
     9  H    0.154543
 Sum of Mulliken charges =   0.00000
 Mulliken charges with hydrogens summed into heavy atoms:
               1
     1  C   -0.036551
     2  C   -0.036551
     3  C    0.233634
     4  O   -0.394164
     5  C    0.233634
 Electronic spatial extent (au):  <R**2>=            290.1774
 Charge=              0.0000 electrons
 Dipole moment (field-independent basis, Debye):
    X=              0.0000    Y=             -0.6316    Z=              0.0000  Tot=              0.6316
 Quadrupole moment (field-independent basis, Debye-Ang):
   XX=            -23.6937   YY=            -27.6277   ZZ=            -31.0428
   XY=              0.0000   XZ=              0.0000   YZ=              0.0000
 Traceless Quadrupole moment (field-independent basis, Debye-Ang):
   XX=              3.7610   YY=             -0.1730   ZZ=             -3.5881
   XY=              0.0000   XZ=              0.0000   YZ=              0.0000
 Octapole moment (field-independent basis, Debye-Ang**2):
  XXX=              0.0000  YYY=             -1.3994  ZZZ=              0.0000  XYY=              0.0000
  XXY=              4.1058  XXZ=              0.0000  XZZ=              0.0000  YZZ=              3.0032
  YYZ=              0.0000  XYZ=              0.0000
 Hexadecapole moment (field-independent basis, Debye-Ang**3):
 XXXX=           -161.2044 YYYY=           -161.6162 ZZZZ=            -30.3723 XXXY=              0.0000
 XXXZ=              0.0000 YYYX=              0.0000 YYYZ=              0.0000 ZZZX=              0.0000
 ZZZY=              0.0000 XXYY=            -47.5520 XXZZ=            -38.9473 YYZZ=            -34.6251
 XXYZ=              0.0000 YYXZ=              0.0000 ZZXY=              0.0000
 N-N= 1.606986302628D+02 E-N=-8.570161737537D+02  KE= 2.278876370605D+02
 No NMR shielding tensors so no spin-rotation constants.
 Leave Link  601 at Thu Mar 19 18:15:28 2026, MaxMem=   536870912 cpu:         0.0
 (Enter C:\G09W\l9999.exe)
 1|1|UNPC-DESKTOP-GS7R1K3|FOpt|RB3LYP|6-31G(d)|C4H4O1|1172|19-Mar-2026|
 0||#p opt B3LYP/6-31G(d)||furan||0,1|C,0.7146131745,0.7400885745,-0.03
 25851646|C,-0.7213385772,0.7338610292,-0.0241689147|C,-1.0922105179,-0
 .5742455289,0.0283400712|O,0.0063076209,-1.3825266076,0.053236446|C,1.
 0974067969,-0.5647490628,0.0155159947|H,1.3674572417,1.601087488,-0.06
 94770755|H,-1.3820133454,1.5891633523,-0.053363031|H,-2.0453083794,-1.
 080230873,0.0532591112|H,2.0550839859,-1.062447372,0.0292435534||Versi
 on=EM64W-G09RevD.01|State=1-A|HF=-230.0205815|RMSD=1.784e-009|RMSF=5.2
 77e-005|Dipole=-0.0011328,0.2482858,-0.0095611|Quadrupole=2.7960001,-0
 .1323055,-2.6636947,0.0121285,-0.0315595,-0.0977546|PG=C01 [X(C4H4O1)]
 ||@


 THE MORE ACCURATE THE CALCULATIONS BECOME, THE MORE THE CONCEPTS
 TEND TO VANISH INTO THIN AIR.
     -- R.S. MULLIKEN, J.C.P. 43,S2(1965)
 Job cpu time:       0 days  0 hours  0 minutes 43.0 seconds.
 File lengths (MBytes):  RWF=      6 Int=      0 D2E=      0 Chk=      2 Scr=      1
 Normal termination of Gaussian 09 at Thu Mar 19 18:15:29 2026.
