 Entering Gaussian System, Link 0=C:\G09W\g09.exe
 Input=pentane_rdkit.com
 Output=C:\workspace\delta_chem\data\raw\pentane\pentane_rdkit.out
 Initial command:
 C:\G09W\l1.exe ".\Gau-5016.inp" "C:\workspace\delta_chem\data\raw\pentane\pentane_rdkit.out" /scrdir=".\"
 Entering Link 1 = C:\G09W\l1.exe PID=      4548.
  
 Copyright (c) 1988,1990,1992,1993,1995,1998,2003,2009,2013,
            Gaussian, Inc.  All Rights Reserved.
  
 This is part of the Gaussian(R) 09 program.  It is based on
 the Gaussian(R) 03 system (copyright 2003, Gaussian, Inc.),
 the Gaussian(R) 98 system (copyright 1998, Gaussian, Inc.),
 the Gaussian(R) 94 system (copyright 1995, Gaussian, Inc.),
 the Gaussian 92(TM) system (copyright 1992, Gaussian, Inc.),
 the Gaussian 90(TM) system (copyright 1990, Gaussian, Inc.),
 the Gaussian 88(TM) system (copyright 1988, Gaussian, Inc.),
 the Gaussian 86(TM) system (copyright 1986, Carnegie Mellon
 University), and the Gaussian 82(TM) system (copyright 1983,
 Carnegie Mellon University). Gaussian is a federally registered
 trademark of Gaussian, Inc.
  
 This software contains proprietary and confidential information,
 including trade secrets, belonging to Gaussian, Inc.
  
 This software is provided under written license and may be
 used, copied, transmitted, or stored only in accord with that
 written license.
  
 The following legend is applicable only to US Government
 contracts under FAR:
  
                    RESTRICTED RIGHTS LEGEND
  
 Use, reproduction and disclosure by the US Government is
 subject to restrictions as set forth in subparagraphs (a)
 and (c) of the Commercial Computer Software - Restricted
 Rights clause in FAR 52.227-19.
  
 Gaussian, Inc.
 340 Quinnipiac St., Bldg. 40, Wallingford CT 06492
  
  
 ---------------------------------------------------------------
 Warning -- This program may not be used in any manner that
 competes with the business of Gaussian, Inc. or will provide
 assistance to any competitor of Gaussian, Inc.  The licensee
 of this program is prohibited from giving any competitor of
 Gaussian, Inc. access to this program.  By using this program,
 the user acknowledges that Gaussian, Inc. is engaged in the
 business of creating and licensing software in the field of
 computational chemistry and represents and warrants to the
 licensee that it is not a competitor of Gaussian, Inc. and that
 it will not use this program in any manner prohibited above.
 ---------------------------------------------------------------
  

 Cite this work as:
 Gaussian 09, Revision D.01,
 M. J. Frisch, G. W. Trucks, H. B. Schlegel, G. E. Scuseria, 
 M. A. Robb, J. R. Cheeseman, G. Scalmani, V. Barone, B. Mennucci, 
 G. A. Petersson, H. Nakatsuji, M. Caricato, X. Li, H. P. Hratchian, 
 A. F. Izmaylov, J. Bloino, G. Zheng, J. L. Sonnenberg, M. Hada, 
 M. Ehara, K. Toyota, R. Fukuda, J. Hasegawa, M. Ishida, T. Nakajima, 
 Y. Honda, O. Kitao, H. Nakai, T. Vreven, J. A. Montgomery, Jr., 
 J. E. Peralta, F. Ogliaro, M. Bearpark, J. J. Heyd, E. Brothers, 
 K. N. Kudin, V. N. Staroverov, T. Keith, R. Kobayashi, J. Normand, 
 K. Raghavachari, A. Rendell, J. C. Burant, S. S. Iyengar, J. Tomasi, 
 M. Cossi, N. Rega, J. M. Millam, M. Klene, J. E. Knox, J. B. Cross, 
 V. Bakken, C. Adamo, J. Jaramillo, R. Gomperts, R. E. Stratmann, 
 O. Yazyev, A. J. Austin, R. Cammi, C. Pomelli, J. W. Ochterski, 
 R. L. Martin, K. Morokuma, V. G. Zakrzewski, G. A. Voth, 
 P. Salvador, J. J. Dannenberg, S. Dapprich, A. D. Daniels, 
 O. Farkas, J. B. Foresman, J. V. Ortiz, J. Cioslowski, 
 and D. J. Fox, Gaussian, Inc., Wallingford CT, 2013.
 
 ******************************************
 Gaussian 09:  EM64W-G09RevD.01 13-Apr-2013
                19-Mar-2026 
 ******************************************
 %NProcShared=4
 Will use up to    4 processors via shared memory.
 %Mem=4GB
 %Chk=pentane_rdkit.chk
 ---------------------
 #p opt B3LYP/6-31G(d)
 ---------------------
 1/14=-1,18=20,19=15,26=3,38=1/1,3;
 2/9=110,12=2,17=6,18=5,40=1/2;
 3/5=1,6=6,7=1,11=2,16=1,25=1,30=1,71=1,74=-5/1,2,3;
 4//1;
 5/5=2,38=5/2;
 6/7=2,8=2,9=2,10=2,28=1/1;
 7//1,2,3,16;
 1/14=-1,18=20,19=15,26=3/3(2);
 2/9=110/2;
 99//99;
 2/9=110/2;
 3/5=1,6=6,7=1,11=2,16=1,25=1,30=1,71=1,74=-5/1,2,3;
 4/5=5,16=3,69=1/1;
 5/5=2,38=5/2;
 7//1,2,3,16;
 1/14=-1,18=20,19=15,26=3/3(-5);
 2/9=110/2;
 6/7=2,8=2,9=2,10=2,19=2,28=1/1;
 99/9=1/99;
 Leave Link    1 at Thu Mar 19 18:04:58 2026, MaxMem=   536870912 cpu:         1.0
 (Enter C:\G09W\l101.exe)
 -------
 pentane
 -------
 Symbolic Z-matrix:
 Charge =  0 Multiplicity = 1
 C                    -2.38355   0.23372   0.78714 
 C                    -1.34606  -0.24632  -0.21522 
 C                     0.06686   0.15949   0.20328 
 C                     1.10657  -0.32496  -0.8069 
 C                     2.51369   0.07671  -0.3943 
 H                    -3.38636  -0.06729   0.46825 
 H                    -2.36834   1.32473   0.87546 
 H                    -2.19936  -0.19412   1.77777 
 H                    -1.4095   -1.33713  -0.30378 
 H                    -1.57755   0.17336  -1.20112 
 H                     0.1239    1.25107   0.29463 
 H                     0.29192  -0.25917   1.19183 
 H                     0.88849   0.09429  -1.79604 
 H                     1.05654  -1.4162   -0.8987 
 H                     3.24086  -0.27977  -1.13054 
 H                     2.60645   1.16523  -0.32468 
 H                     2.77543  -0.35363   0.57763 
 
 NAtoms=     17 NQM=       17 NQMF=       0 NMMI=      0 NMMIF=      0
                NMic=       0 NMicF=      0.
                    Isotopes and Nuclear Properties:
 (Nuclear quadrupole moments (NQMom) in fm**2, nuclear magnetic moments (NMagM)
  in nuclear magnetons)

  Atom         1           2           3           4           5           6           7           8           9          10
 IAtWgt=          12          12          12          12          12           1           1           1           1           1
 AtmWgt=  12.0000000  12.0000000  12.0000000  12.0000000  12.0000000   1.0078250   1.0078250   1.0078250   1.0078250   1.0078250
 NucSpn=           0           0           0           0           0           1           1           1           1           1
 AtZEff=   0.0000000   0.0000000   0.0000000   0.0000000   0.0000000   0.0000000   0.0000000   0.0000000   0.0000000   0.0000000
 NQMom=    0.0000000   0.0000000   0.0000000   0.0000000   0.0000000   0.0000000   0.0000000   0.0000000   0.0000000   0.0000000
 NMagM=    0.0000000   0.0000000   0.0000000   0.0000000   0.0000000   2.7928460   2.7928460   2.7928460   2.7928460   2.7928460
 AtZNuc=   6.0000000   6.0000000   6.0000000   6.0000000   6.0000000   1.0000000   1.0000000   1.0000000   1.0000000   1.0000000

  Atom        11          12          13          14          15          16          17
 IAtWgt=           1           1           1           1           1           1           1
 AtmWgt=   1.0078250   1.0078250   1.0078250   1.0078250   1.0078250   1.0078250   1.0078250
 NucSpn=           1           1           1           1           1           1           1
 AtZEff=   0.0000000   0.0000000   0.0000000   0.0000000   0.0000000   0.0000000   0.0000000
 NQMom=    0.0000000   0.0000000   0.0000000   0.0000000   0.0000000   0.0000000   0.0000000
 NMagM=    2.7928460   2.7928460   2.7928460   2.7928460   2.7928460   2.7928460   2.7928460
 AtZNuc=   1.0000000   1.0000000   1.0000000   1.0000000   1.0000000   1.0000000   1.0000000
 Leave Link  101 at Thu Mar 19 18:04:58 2026, MaxMem=   536870912 cpu:         0.0
 (Enter C:\G09W\l103.exe)

 GradGradGradGradGradGradGradGradGradGradGradGradGradGradGradGradGradGrad
 Berny optimization.
 Initialization pass.
                           ----------------------------
                           !    Initial Parameters    !
                           ! (Angstroms and Degrees)  !
 --------------------------                            --------------------------
 ! Name  Definition              Value          Derivative Info.                !
 --------------------------------------------------------------------------------
 ! R1    R(1,2)                  1.5204         estimate D2E/DX2                !
 ! R2    R(1,6)                  1.0945         estimate D2E/DX2                !
 ! R3    R(1,7)                  1.0947         estimate D2E/DX2                !
 ! R4    R(1,8)                  1.0947         estimate D2E/DX2                !
 ! R5    R(2,3)                  1.5285         estimate D2E/DX2                !
 ! R6    R(2,9)                  1.0962         estimate D2E/DX2                !
 ! R7    R(2,10)                 1.0962         estimate D2E/DX2                !
 ! R8    R(3,4)                  1.5285         estimate D2E/DX2                !
 ! R9    R(3,11)                 1.0969         estimate D2E/DX2                !
 ! R10   R(3,12)                 1.0969         estimate D2E/DX2                !
 ! R11   R(4,5)                  1.5204         estimate D2E/DX2                !
 ! R12   R(4,13)                 1.0962         estimate D2E/DX2                !
 ! R13   R(4,14)                 1.0962         estimate D2E/DX2                !
 ! R14   R(5,15)                 1.0945         estimate D2E/DX2                !
 ! R15   R(5,16)                 1.0947         estimate D2E/DX2                !
 ! R16   R(5,17)                 1.0947         estimate D2E/DX2                !
 ! A1    A(2,1,6)              110.2611         estimate D2E/DX2                !
 ! A2    A(2,1,7)              111.0014         estimate D2E/DX2                !
 ! A3    A(2,1,8)              111.0014         estimate D2E/DX2                !
 ! A4    A(6,1,7)              108.08           estimate D2E/DX2                !
 ! A5    A(6,1,8)              108.0799         estimate D2E/DX2                !
 ! A6    A(7,1,8)              108.3108         estimate D2E/DX2                !
 ! A7    A(1,2,3)              111.4977         estimate D2E/DX2                !
 ! A8    A(1,2,9)              109.1445         estimate D2E/DX2                !
 ! A9    A(1,2,10)             109.1445         estimate D2E/DX2                !
 ! A10   A(3,2,9)              109.8652         estimate D2E/DX2                !
 ! A11   A(3,2,10)             109.8652         estimate D2E/DX2                !
 ! A12   A(9,2,10)             107.2214         estimate D2E/DX2                !
 ! A13   A(2,3,4)              111.3279         estimate D2E/DX2                !
 ! A14   A(2,3,11)             109.5784         estimate D2E/DX2                !
 ! A15   A(2,3,12)             109.5784         estimate D2E/DX2                !
 ! A16   A(4,3,11)             109.5784         estimate D2E/DX2                !
 ! A17   A(4,3,12)             109.5784         estimate D2E/DX2                !
 ! A18   A(11,3,12)            107.1038         estimate D2E/DX2                !
 ! A19   A(3,4,5)              111.4977         estimate D2E/DX2                !
 ! A20   A(3,4,13)             109.8652         estimate D2E/DX2                !
 ! A21   A(3,4,14)             109.8653         estimate D2E/DX2                !
 ! A22   A(5,4,13)             109.1445         estimate D2E/DX2                !
 ! A23   A(5,4,14)             109.1444         estimate D2E/DX2                !
 ! A24   A(13,4,14)            107.2214         estimate D2E/DX2                !
 ! A25   A(4,5,15)             110.261          estimate D2E/DX2                !
 ! A26   A(4,5,16)             111.0014         estimate D2E/DX2                !
 ! A27   A(4,5,17)             111.0014         estimate D2E/DX2                !
 ! A28   A(15,5,16)            108.08           estimate D2E/DX2                !
 ! A29   A(15,5,17)            108.08           estimate D2E/DX2                !
 ! A30   A(16,5,17)            108.3108         estimate D2E/DX2                !
 ! D1    D(6,1,2,3)           -179.9999         estimate D2E/DX2                !
 ! D2    D(6,1,2,9)            -58.4442         estimate D2E/DX2                !
 ! D3    D(6,1,2,10)            58.4444         estimate D2E/DX2                !
 ! D4    D(7,1,2,3)             60.2602         estimate D2E/DX2                !
 ! D5    D(7,1,2,9)           -178.1841         estimate D2E/DX2                !
 ! D6    D(7,1,2,10)           -61.2955         estimate D2E/DX2                !
 ! D7    D(8,1,2,3)            -60.2602         estimate D2E/DX2                !
 ! D8    D(8,1,2,9)             61.2955         estimate D2E/DX2                !
 ! D9    D(8,1,2,10)           178.1841         estimate D2E/DX2                !
 ! D10   D(1,2,3,4)            179.9999         estimate D2E/DX2                !
 ! D11   D(1,2,3,11)           -58.6227         estimate D2E/DX2                !
 ! D12   D(1,2,3,12)            58.6225         estimate D2E/DX2                !
 ! D13   D(9,2,3,4)             58.8634         estimate D2E/DX2                !
 ! D14   D(9,2,3,11)          -179.7592         estimate D2E/DX2                !
 ! D15   D(9,2,3,12)           -62.514          estimate D2E/DX2                !
 ! D16   D(10,2,3,4)           -58.8636         estimate D2E/DX2                !
 ! D17   D(10,2,3,11)           62.5139         estimate D2E/DX2                !
 ! D18   D(10,2,3,12)          179.759          estimate D2E/DX2                !
 ! D19   D(2,3,4,5)           -180.0            estimate D2E/DX2                !
 ! D20   D(2,3,4,13)            58.8635         estimate D2E/DX2                !
 ! D21   D(2,3,4,14)           -58.8635         estimate D2E/DX2                !
 ! D22   D(11,3,4,5)            58.6226         estimate D2E/DX2                !
 ! D23   D(11,3,4,13)          -62.514          estimate D2E/DX2                !
 ! D24   D(11,3,4,14)          179.7591         estimate D2E/DX2                !
 ! D25   D(12,3,4,5)           -58.6226         estimate D2E/DX2                !
 ! D26   D(12,3,4,13)         -179.7592         estimate D2E/DX2                !
 ! D27   D(12,3,4,14)           62.5139         estimate D2E/DX2                !
 ! D28   D(3,4,5,15)          -179.9999         estimate D2E/DX2                !
 ! D29   D(3,4,5,16)           -60.2601         estimate D2E/DX2                !
 ! D30   D(3,4,5,17)            60.2603         estimate D2E/DX2                !
 ! D31   D(13,4,5,15)          -58.4442         estimate D2E/DX2                !
 ! D32   D(13,4,5,16)           61.2956         estimate D2E/DX2                !
 ! D33   D(13,4,5,17)         -178.184          estimate D2E/DX2                !
 ! D34   D(14,4,5,15)           58.4444         estimate D2E/DX2                !
 ! D35   D(14,4,5,16)          178.1842         estimate D2E/DX2                !
 ! D36   D(14,4,5,17)          -61.2954         estimate D2E/DX2                !
 --------------------------------------------------------------------------------
 Trust Radius=3.00D-01 FncErr=1.00D-07 GrdErr=1.00D-06
 Number of steps in this run=     92 maximum allowed number of steps=    102.
 GradGradGradGradGradGradGradGradGradGradGradGradGradGradGradGradGradGrad

 Leave Link  103 at Thu Mar 19 18:04:58 2026, MaxMem=   536870912 cpu:         0.0
 (Enter C:\G09W\l202.exe)
                          Input orientation:                          
 ---------------------------------------------------------------------
 Center     Atomic      Atomic             Coordinates (Angstroms)
 Number     Number       Type             X           Y           Z
 ---------------------------------------------------------------------
      1          6           0       -2.383552    0.233722    0.787138
      2          6           0       -1.346061   -0.246324   -0.215219
      3          6           0        0.066859    0.159489    0.203279
      4          6           0        1.106572   -0.324962   -0.806904
      5          6           0        2.513686    0.076705   -0.394296
      6          1           0       -3.386355   -0.067291    0.468247
      7          1           0       -2.368338    1.324732    0.875463
      8          1           0       -2.199356   -0.194123    1.777773
      9          1           0       -1.409501   -1.337127   -0.303784
     10          1           0       -1.577550    0.173356   -1.201119
     11          1           0        0.123897    1.251070    0.294634
     12          1           0        0.291917   -0.259166    1.191826
     13          1           0        0.888491    0.094287   -1.796040
     14          1           0        1.056540   -1.416195   -0.898702
     15          1           0        3.240862   -0.279774   -1.130538
     16          1           0        2.606454    1.165229   -0.324680
     17          1           0        2.775434   -0.353627    0.577629
 ---------------------------------------------------------------------
                    Distance matrix (angstroms):
                    1          2          3          4          5
     1  C    0.000000
     2  C    1.520379   0.000000
     3  C    2.520102   1.528453   0.000000
     4  C    3.877378   2.524219   1.528452   0.000000
     5  C    5.040177   3.877378   2.520101   1.520379   0.000000
     6  H    1.094493   2.159161   3.470781   4.677478   5.964495
     7  H    1.094685   2.168607   2.782051   4.198434   5.196539
     8  H    1.094686   2.168607   2.782050   4.198432   5.196537
     9  H    2.146265   1.096230   2.162547   2.758302   4.171152
    10  H    2.146264   1.096229   2.162546   2.758303   4.171153
    11  H    2.750429   2.159378   1.096881   2.159378   2.750427
    12  H    2.750426   2.159378   1.096881   2.159378   2.750427
    13  H    4.171153   2.758303   2.162546   1.096229   2.146265
    14  H    4.171153   2.758304   2.162547   1.096230   2.146264
    15  H    5.964494   4.677477   3.470780   2.159161   1.094493
    16  H    5.196538   4.198433   2.782049   2.168607   1.094686
    17  H    5.196538   4.198433   2.782050   2.168606   1.094685
                    6          7          8          9         10
     6  H    0.000000
     7  H    1.771980   0.000000
     8  H    1.771979   1.774722   0.000000
     9  H    2.473149   3.065206   2.502640   0.000000
    10  H    2.473150   2.502640   3.065205   1.764939   0.000000
    11  H    3.753676   2.560083   3.112200   3.067275   2.508718
    12  H    3.753674   3.112198   2.560079   2.508719   3.067274
    13  H    4.840187   4.388378   4.731820   3.091366   2.538019
    14  H    4.840187   4.731821   4.388375   2.538018   3.091368
    15  H    6.820650   6.169409   6.169407   4.840185   4.840186
    16  H    6.169408   5.119994   5.418852   4.731820   4.388376
    17  H    6.169408   5.418855   5.119992   4.388376   4.731820
                   11         12         13         14         15
    11  H    0.000000
    12  H    1.764652   0.000000
    13  H    2.508719   3.067274   0.000000
    14  H    3.067275   2.508719   1.764940   0.000000
    15  H    3.753674   3.753675   2.473149   2.473148   0.000000
    16  H    2.560080   3.112197   2.502641   3.065205   1.771980
    17  H    3.112200   2.560082   3.065206   2.502639   1.771980
                   16         17
    16  H    0.000000
    17  H    1.774722   0.000000
 Stoichiometry    C5H12
 Framework group  C1[X(C5H12)]
 Deg. of freedom    45
 Full point group                 C1      NOp   1
 Largest Abelian subgroup         C1      NOp   1
 Largest concise Abelian subgroup C1      NOp   1
                         Standard orientation:                         
 ---------------------------------------------------------------------
 Center     Atomic      Atomic             Coordinates (Angstroms)
 Number     Number       Type             X           Y           Z
 ---------------------------------------------------------------------
      1          6           0       -2.520088    0.323986    0.000001
      2          6           0       -1.262110   -0.529853   -0.000001
      3          6           0        0.000000    0.332264   -0.000001
      4          6           0        1.262110   -0.529853    0.000000
      5          6           0        2.520088    0.323987    0.000000
      6          1           0       -3.410325   -0.312718    0.000002
      7          1           0       -2.559998    0.963779   -0.887360
      8          1           0       -2.559996    0.963778    0.887362
      9          1           0       -1.269009   -1.180175    0.882469
     10          1           0       -1.269010   -1.180174   -0.882470
     11          1           0        0.000001    0.983915   -0.882328
     12          1           0       -0.000001    0.983916    0.882325
     13          1           0        1.269009   -1.180175   -0.882469
     14          1           0        1.269010   -1.180174    0.882471
     15          1           0        3.410325   -0.312719    0.000000
     16          1           0        2.559996    0.963779   -0.887360
     17          1           0        2.559997    0.963778    0.887362
 ---------------------------------------------------------------------
 Rotational constants (GHZ):     16.8631404      1.9827548      1.8780968
 Leave Link  202 at Thu Mar 19 18:04:59 2026, MaxMem=   536870912 cpu:         0.0
 (Enter C:\G09W\l301.exe)
 Standard basis: 6-31G(d) (6D, 7F)
 Ernie: Thresh=  0.10000D-02 Tol=  0.10000D-05 Strict=F.
 There are    99 symmetry adapted cartesian basis functions of A   symmetry.
 There are    99 symmetry adapted basis functions of A   symmetry.
    99 basis functions,   188 primitive gaussians,    99 cartesian basis functions
    21 alpha electrons       21 beta electrons
       nuclear repulsion energy       185.6959705205 Hartrees.
 IExCor=  402 DFT=T Ex+Corr=B3LYP ExCW=0 ScaHFX=  0.200000
 ScaDFX=  0.800000  0.720000  1.000000  0.810000 ScalE2=  1.000000  1.000000
 IRadAn=      0 IRanWt=     -1 IRanGd=            0 ICorTp=0 IEmpDi=  4
 NAtoms=   17 NActive=   17 NUniq=   17 SFac= 1.00D+00 NAtFMM=   60 NAOKFM=F Big=F
 Integral buffers will be    131072 words long.
 Raffenetti 2 integral format.
 Two-electron integral symmetry is turned on.
 Leave Link  301 at Thu Mar 19 18:04:59 2026, MaxMem=   536870912 cpu:         0.0
 (Enter C:\G09W\l302.exe)
 NPDir=0 NMtPBC=     1 NCelOv=     1 NCel=       1 NClECP=     1 NCelD=      1
         NCelK=      1 NCelE2=     1 NClLst=     1 CellRange=     0.0.
 One-electron integrals computed using PRISM.
 NBasis=    99 RedAO= T EigKep=  3.66D-03  NBF=    99
 NBsUse=    99 1.00D-06 EigRej= -1.00D+00 NBFU=    99
 Precomputing XC quadrature grid using
 IXCGrd= 4 IRadAn=           0 IRanWt=          -1 IRanGd=           0 AccXCQ= 0.00D+00.
 Generated NRdTot=       0 NPtTot=           0 NUsed=           0 NTot=          32
 NSgBfM=    99    99    99    99    99 MxSgAt=    17 MxSgA2=    17.
 Leave Link  302 at Thu Mar 19 18:04:59 2026, MaxMem=   536870912 cpu:         0.0
 (Enter C:\G09W\l303.exe)
 DipDrv:  MaxL=1.
 Leave Link  303 at Thu Mar 19 18:04:59 2026, MaxMem=   536870912 cpu:         0.0
 (Enter C:\G09W\l401.exe)
 ExpMin= 1.61D-01 ExpMax= 3.05D+03 ExpMxC= 4.57D+02 IAcc=1 IRadAn=         1 AccDes= 0.00D+00
 Harris functional with IExCor=  402 and IRadAn=       1 diagonalized for initial guess.
 HarFok:  IExCor=  402 AccDes= 0.00D+00 IRadAn=         1 IDoV= 1 UseB2=F ITyADJ=14
 ICtDFT=  3500011 ScaDFX=  1.000000  1.000000  1.000000  1.000000
 FoFCou: FMM=F IPFlag=           0 FMFlag=      100000 FMFlg1=           0
         NFxFlg=           0 DoJE=T BraDBF=F KetDBF=T FulRan=T
         wScrn=  0.000000 ICntrl=     500 IOpCl=  0 I1Cent=   200000004 NGrid=           0
         NMat0=    1 NMatS0=      1 NMatT0=    0 NMatD0=    1 NMtDS0=    0 NMtDT0=    0
 Petite list used in FoFCou.
 Harris En= -197.852168529342    
 JPrj=0 DoOrth=F DoCkMO=F.
 Leave Link  401 at Thu Mar 19 18:05:00 2026, MaxMem=   536870912 cpu:         0.0
 (Enter C:\G09W\l502.exe)
 Closed shell SCF:
 Using DIIS extrapolation, IDIIS=  1040.
 Integral symmetry usage will be decided dynamically.
 Keep R1 ints in memory in canonical form, NReq=13222677.
 IVT=       49318 IEndB=       49318 NGot=   536870912 MDV=   524567870
 LenX=   524567870 LenY=   524557628
 Requested convergence on RMS density matrix=1.00D-08 within 128 cycles.
 Requested convergence on MAX density matrix=1.00D-06.
 Requested convergence on             energy=1.00D-06.
 No special actions if energy rises.
 FoFCou: FMM=F IPFlag=           0 FMFlag=           0 FMFlg1=           0
         NFxFlg=           0 DoJE=F BraDBF=F KetDBF=F FulRan=T
         wScrn=  0.000000 ICntrl=     600 IOpCl=  0 I1Cent=           0 NGrid=           0
         NMat0=    1 NMatS0=   4950 NMatT0=    0 NMatD0=    1 NMtDS0=    0 NMtDT0=    0
 Symmetry not used in FoFCou.
 Integral accuracy reduced to 1.0D-05 until final iterations.

 Cycle   1  Pass 0  IDiag  1:
 E= -197.522566699803    
 DIIS: error= 6.02D-02 at cycle   1 NSaved=   1.
 NSaved= 1 IEnMin= 1 EnMin= -197.522566699803     IErMin= 1 ErrMin= 6.02D-02
 ErrMax= 6.02D-02  0.00D+00 EMaxC= 1.00D-01 BMatC= 2.19D-01 BMatP= 2.19D-01
 IDIUse=3 WtCom= 3.98D-01 WtEn= 6.02D-01
 Coeff-Com:  0.100D+01
 Coeff-En:   0.100D+01
 Coeff:      0.100D+01
 Gap=     0.369 Goal=   None    Shift=    0.000
 GapD=    0.369 DampG=1.000 DampE=0.500 DampFc=0.5000 IDamp=-1.
 Damping current iteration by 5.00D-01
 RMSDP=1.10D-02 MaxDP=1.41D-01              OVMax= 1.90D-01

 Cycle   2  Pass 0  IDiag  1:
 E= -197.633383695047     Delta-E=       -0.110816995244 Rises=F Damp=T
 DIIS: error= 1.02D-02 at cycle   2 NSaved=   2.
 NSaved= 2 IEnMin= 2 EnMin= -197.633383695047     IErMin= 2 ErrMin= 1.02D-02
 ErrMax= 1.02D-02  0.00D+00 EMaxC= 1.00D-01 BMatC= 8.17D-03 BMatP= 2.19D-01
 IDIUse=3 WtCom= 8.98D-01 WtEn= 1.02D-01
 Coeff-Com:  0.760D-01 0.924D+00
 Coeff-En:   0.123D+00 0.877D+00
 Coeff:      0.808D-01 0.919D+00
 Gap=     0.400 Goal=   None    Shift=    0.000
 RMSDP=1.56D-03 MaxDP=2.17D-02 DE=-1.11D-01 OVMax= 9.98D-02

 Cycle   3  Pass 0  IDiag  1:
 E= -197.769996733224     Delta-E=       -0.136613038177 Rises=F Damp=F
 DIIS: error= 2.59D-03 at cycle   3 NSaved=   3.
 NSaved= 3 IEnMin= 3 EnMin= -197.769996733224     IErMin= 3 ErrMin= 2.59D-03
 ErrMax= 2.59D-03  0.00D+00 EMaxC= 1.00D-01 BMatC= 4.59D-04 BMatP= 8.17D-03
 IDIUse=3 WtCom= 9.74D-01 WtEn= 2.59D-02
 Coeff-Com:  0.114D-02 0.130D+00 0.869D+00
 Coeff-En:   0.000D+00 0.000D+00 0.100D+01
 Coeff:      0.111D-02 0.126D+00 0.873D+00
 Gap=     0.396 Goal=   None    Shift=    0.000
 RMSDP=3.82D-04 MaxDP=6.53D-03 DE=-1.37D-01 OVMax= 6.82D-03

 Cycle   4  Pass 0  IDiag  1:
 E= -197.770267509779     Delta-E=       -0.000270776556 Rises=F Damp=F
 DIIS: error= 1.21D-03 at cycle   4 NSaved=   4.
 NSaved= 4 IEnMin= 4 EnMin= -197.770267509779     IErMin= 4 ErrMin= 1.21D-03
 ErrMax= 1.21D-03  0.00D+00 EMaxC= 1.00D-01 BMatC= 1.91D-04 BMatP= 4.59D-04
 IDIUse=3 WtCom= 9.88D-01 WtEn= 1.21D-02
 Coeff-Com: -0.106D-02 0.237D-01 0.398D+00 0.579D+00
 Coeff-En:   0.000D+00 0.000D+00 0.250D+00 0.750D+00
 Coeff:     -0.105D-02 0.235D-01 0.397D+00 0.581D+00
 Gap=     0.396 Goal=   None    Shift=    0.000
 RMSDP=1.60D-04 MaxDP=2.25D-03 DE=-2.71D-04 OVMax= 3.21D-03

 Cycle   5  Pass 0  IDiag  1:
 E= -197.770445500767     Delta-E=       -0.000177990987 Rises=F Damp=F
 DIIS: error= 3.37D-04 at cycle   5 NSaved=   5.
 NSaved= 5 IEnMin= 5 EnMin= -197.770445500767     IErMin= 5 ErrMin= 3.37D-04
 ErrMax= 3.37D-04  0.00D+00 EMaxC= 1.00D-01 BMatC= 1.29D-05 BMatP= 1.91D-04
 IDIUse=3 WtCom= 9.97D-01 WtEn= 3.37D-03
 Coeff-Com: -0.162D-03-0.809D-03 0.105D+00 0.262D+00 0.634D+00
 Coeff-En:   0.000D+00 0.000D+00 0.000D+00 0.000D+00 0.100D+01
 Coeff:     -0.161D-03-0.806D-03 0.105D+00 0.261D+00 0.636D+00
 Gap=     0.396 Goal=   None    Shift=    0.000
 RMSDP=3.24D-05 MaxDP=6.20D-04 DE=-1.78D-04 OVMax= 6.57D-04

 Cycle   6  Pass 0  IDiag  1:
 E= -197.770457735031     Delta-E=       -0.000012234265 Rises=F Damp=F
 DIIS: error= 2.89D-05 at cycle   6 NSaved=   6.
 NSaved= 6 IEnMin= 6 EnMin= -197.770457735031     IErMin= 6 ErrMin= 2.89D-05
 ErrMax= 2.89D-05  0.00D+00 EMaxC= 1.00D-01 BMatC= 7.71D-08 BMatP= 1.29D-05
 IDIUse=1 WtCom= 1.00D+00 WtEn= 0.00D+00
 Coeff-Com:  0.516D-04-0.720D-03 0.228D-01 0.637D-01 0.180D+00 0.734D+00
 Coeff:      0.516D-04-0.720D-03 0.228D-01 0.637D-01 0.180D+00 0.734D+00
 Gap=     0.396 Goal=   None    Shift=    0.000
 RMSDP=4.58D-06 MaxDP=5.15D-05 DE=-1.22D-05 OVMax= 8.70D-05

 Initial convergence to 1.0D-05 achieved.  Increase integral accuracy.
 Cycle   7  Pass 1  IDiag  1:
 E= -197.770566864764     Delta-E=       -0.000109129733 Rises=F Damp=F
 DIIS: error= 1.73D-05 at cycle   1 NSaved=   1.
 NSaved= 1 IEnMin= 1 EnMin= -197.770566864764     IErMin= 1 ErrMin= 1.73D-05
 ErrMax= 1.73D-05  0.00D+00 EMaxC= 1.00D-01 BMatC= 2.73D-08 BMatP= 2.73D-08
 IDIUse=1 WtCom= 1.00D+00 WtEn= 0.00D+00
 Coeff-Com:  0.100D+01
 Coeff:      0.100D+01
 Gap=     0.396 Goal=   None    Shift=    0.000
 RMSDP=4.58D-06 MaxDP=5.15D-05 DE=-1.09D-04 OVMax= 6.23D-05

 Cycle   8  Pass 1  IDiag  1:
 E= -197.770566903768     Delta-E=       -0.000000039004 Rises=F Damp=F
 DIIS: error= 6.86D-06 at cycle   2 NSaved=   2.
 NSaved= 2 IEnMin= 2 EnMin= -197.770566903768     IErMin= 2 ErrMin= 6.86D-06
 ErrMax= 6.86D-06  0.00D+00 EMaxC= 1.00D-01 BMatC= 3.21D-09 BMatP= 2.73D-08
 IDIUse=1 WtCom= 1.00D+00 WtEn= 0.00D+00
 Coeff-Com:  0.146D+00 0.854D+00
 Coeff:      0.146D+00 0.854D+00
 Gap=     0.396 Goal=   None    Shift=    0.000
 RMSDP=1.02D-06 MaxDP=1.89D-05 DE=-3.90D-08 OVMax= 1.98D-05

 Cycle   9  Pass 1  IDiag  1:
 E= -197.770566904917     Delta-E=       -0.000000001150 Rises=F Damp=F
 DIIS: error= 5.61D-06 at cycle   3 NSaved=   3.
 NSaved= 3 IEnMin= 3 EnMin= -197.770566904917     IErMin= 3 ErrMin= 5.61D-06
 ErrMax= 5.61D-06  0.00D+00 EMaxC= 1.00D-01 BMatC= 2.11D-09 BMatP= 3.21D-09
 IDIUse=1 WtCom= 1.00D+00 WtEn= 0.00D+00
 Coeff-Com: -0.175D-01 0.448D+00 0.570D+00
 Coeff:     -0.175D-01 0.448D+00 0.570D+00
 Gap=     0.396 Goal=   None    Shift=    0.000
 RMSDP=4.66D-07 MaxDP=7.97D-06 DE=-1.15D-09 OVMax= 8.23D-06

 Cycle  10  Pass 1  IDiag  1:
 E= -197.770566907041     Delta-E=       -0.000000002124 Rises=F Damp=F
 DIIS: error= 3.64D-07 at cycle   4 NSaved=   4.
 NSaved= 4 IEnMin= 4 EnMin= -197.770566907041     IErMin= 4 ErrMin= 3.64D-07
 ErrMax= 3.64D-07  0.00D+00 EMaxC= 1.00D-01 BMatC= 1.15D-11 BMatP= 2.11D-09
 IDIUse=1 WtCom= 1.00D+00 WtEn= 0.00D+00
 Coeff-Com: -0.770D-02 0.114D+00 0.171D+00 0.722D+00
 Coeff:     -0.770D-02 0.114D+00 0.171D+00 0.722D+00
 Gap=     0.396 Goal=   None    Shift=    0.000
 RMSDP=6.21D-08 MaxDP=6.56D-07 DE=-2.12D-09 OVMax= 1.06D-06

 Cycle  11  Pass 1  IDiag  1:
 E= -197.770566907053     Delta-E=       -0.000000000012 Rises=F Damp=F
 DIIS: error= 6.32D-08 at cycle   5 NSaved=   5.
 NSaved= 5 IEnMin= 5 EnMin= -197.770566907053     IErMin= 5 ErrMin= 6.32D-08
 ErrMax= 6.32D-08  0.00D+00 EMaxC= 1.00D-01 BMatC= 5.41D-13 BMatP= 1.15D-11
 IDIUse=1 WtCom= 1.00D+00 WtEn= 0.00D+00
 Coeff-Com: -0.213D-02 0.281D-01 0.445D-01 0.249D+00 0.680D+00
 Coeff:     -0.213D-02 0.281D-01 0.445D-01 0.249D+00 0.680D+00
 Gap=     0.396 Goal=   None    Shift=    0.000
 RMSDP=1.03D-08 MaxDP=1.41D-07 DE=-1.18D-11 OVMax= 1.80D-07

 Cycle  12  Pass 1  IDiag  1:
 E= -197.770566907051     Delta-E=        0.000000000001 Rises=F Damp=F
 DIIS: error= 2.72D-08 at cycle   6 NSaved=   6.
 NSaved= 6 IEnMin= 5 EnMin= -197.770566907053     IErMin= 6 ErrMin= 2.72D-08
 ErrMax= 2.72D-08  0.00D+00 EMaxC= 1.00D-01 BMatC= 8.73D-14 BMatP= 5.41D-13
 IDIUse=1 WtCom= 1.00D+00 WtEn= 0.00D+00
 Coeff-Com: -0.334D-03 0.249D-02 0.500D-02 0.522D-01 0.314D+00 0.626D+00
 Coeff:     -0.334D-03 0.249D-02 0.500D-02 0.522D-01 0.314D+00 0.626D+00
 Gap=     0.396 Goal=   None    Shift=    0.000
 RMSDP=2.92D-09 MaxDP=4.87D-08 DE= 1.25D-12 OVMax= 6.13D-08

 SCF Done:  E(RB3LYP) =  -197.770566907     A.U. after   12 cycles
            NFock= 12  Conv=0.29D-08     -V/T= 2.0099
 KE= 1.958306412991D+02 PE=-8.276386784586D+02 EE= 2.483414997320D+02
 Leave Link  502 at Thu Mar 19 18:05:09 2026, MaxMem=   536870912 cpu:         9.0
 (Enter C:\G09W\l601.exe)
 Copying SCF densities to generalized density rwf, IOpCl= 0 IROHF=0.

 **********************************************************************

            Population analysis using the SCF density.

 **********************************************************************

 Orbital symmetries:
       Occupied  (A) (A) (A) (A) (A) (A) (A) (A) (A) (A) (A) (A)
                 (A) (A) (A) (A) (A) (A) (A) (A) (A)
       Virtual   (A) (A) (A) (A) (A) (A) (A) (A) (A) (A) (A) (A)
                 (A) (A) (A) (A) (A) (A) (A) (A) (A) (A) (A) (A)
                 (A) (A) (A) (A) (A) (A) (A) (A) (A) (A) (A) (A)
                 (A) (A) (A) (A) (A) (A) (A) (A) (A) (A) (A) (A)
                 (A) (A) (A) (A) (A) (A) (A) (A) (A) (A) (A) (A)
                 (A) (A) (A) (A) (A) (A) (A) (A) (A) (A) (A) (A)
                 (A) (A) (A) (A) (A) (A)
 The electronic state is 1-A.
 Alpha  occ. eigenvalues --  -10.17283 -10.17282 -10.17135 -10.16704 -10.16704
 Alpha  occ. eigenvalues --   -0.79838  -0.74701  -0.66954  -0.59111  -0.57141
 Alpha  occ. eigenvalues --   -0.47342  -0.43341  -0.42943  -0.39773  -0.38826
 Alpha  occ. eigenvalues --   -0.37337  -0.34822  -0.33181  -0.32502  -0.32071
 Alpha  occ. eigenvalues --   -0.30331
 Alpha virt. eigenvalues --    0.09303   0.11103   0.12671   0.13590   0.15698
 Alpha virt. eigenvalues --    0.17574   0.17611   0.18017   0.19859   0.20152
 Alpha virt. eigenvalues --    0.20152   0.20965   0.23419   0.25392   0.27918
 Alpha virt. eigenvalues --    0.28113   0.49428   0.51105   0.52323   0.55473
 Alpha virt. eigenvalues --    0.56316   0.59284   0.59946   0.65693   0.66213
 Alpha virt. eigenvalues --    0.69818   0.72419   0.75529   0.78758   0.81802
 Alpha virt. eigenvalues --    0.85417   0.88418   0.89129   0.90089   0.91140
 Alpha virt. eigenvalues --    0.93480   0.94217   0.95089   0.95376   0.96656
 Alpha virt. eigenvalues --    0.98443   0.99347   1.01779   1.11647   1.34235
 Alpha virt. eigenvalues --    1.42374   1.43714   1.44622   1.50059   1.56905
 Alpha virt. eigenvalues --    1.72075   1.79534   1.82235   1.89750   1.92037
 Alpha virt. eigenvalues --    1.95215   1.99962   2.00582   2.01087   2.02020
 Alpha virt. eigenvalues --    2.08661   2.23016   2.23283   2.28608   2.31994
 Alpha virt. eigenvalues --    2.32776   2.40829   2.43533   2.44546   2.56584
 Alpha virt. eigenvalues --    2.57616   2.74121   2.80976   4.13665   4.22016
 Alpha virt. eigenvalues --    4.31873   4.41033   4.55052
          Condensed to atoms (all electrons):
               1          2          3          4          5          6
     1  C    5.069417   0.372101  -0.047594   0.004323  -0.000177   0.370207
     2  C    0.372101   4.951063   0.390686  -0.040816   0.004323  -0.029493
     3  C   -0.047594   0.390686   4.971517   0.390686  -0.047594   0.004753
     4  C    0.004323  -0.040816   0.390686   4.951063   0.372101  -0.000170
     5  C   -0.000177   0.004323  -0.047594   0.372101   5.069418   0.000002
     6  H    0.370207  -0.029493   0.004753  -0.000170   0.000002   0.584044
     7  H    0.378567  -0.035392  -0.005129   0.000050   0.000001  -0.030944
     8  H    0.378566  -0.035393  -0.005129   0.000050   0.000001  -0.030944
     9  H   -0.039728   0.378312  -0.039418  -0.003918   0.000049  -0.002928
    10  H   -0.039728   0.378312  -0.039418  -0.003918   0.000049  -0.002928
    11  H   -0.003179  -0.039858   0.374198  -0.039858  -0.003179  -0.000024
    12  H   -0.003179  -0.039858   0.374198  -0.039858  -0.003179  -0.000024
    13  H    0.000049  -0.003918  -0.039418   0.378312  -0.039728   0.000002
    14  H    0.000049  -0.003918  -0.039418   0.378312  -0.039728   0.000002
    15  H    0.000002  -0.000170   0.004753  -0.029493   0.370207   0.000000
    16  H    0.000001   0.000050  -0.005129  -0.035392   0.378566   0.000000
    17  H    0.000001   0.000050  -0.005129  -0.035392   0.378567   0.000000
               7          8          9         10         11         12
     1  C    0.378567   0.378566  -0.039728  -0.039728  -0.003179  -0.003179
     2  C   -0.035392  -0.035393   0.378312   0.378312  -0.039858  -0.039858
     3  C   -0.005129  -0.005129  -0.039418  -0.039418   0.374198   0.374198
     4  C    0.000050   0.000050  -0.003918  -0.003918  -0.039858  -0.039858
     5  C    0.000001   0.000001   0.000049   0.000049  -0.003179  -0.003179
     6  H   -0.030944  -0.030944  -0.002928  -0.002928  -0.000024  -0.000024
     7  H    0.579654  -0.032308   0.005523  -0.004777   0.005146  -0.000421
     8  H   -0.032308   0.579654  -0.004777   0.005523  -0.000421   0.005146
     9  H    0.005523  -0.004777   0.610987  -0.039068   0.005924  -0.005473
    10  H   -0.004777   0.005523  -0.039068   0.610987  -0.005473   0.005924
    11  H    0.005146  -0.000421   0.005924  -0.005473   0.615459  -0.040293
    12  H   -0.000421   0.005146  -0.005473   0.005924  -0.040293   0.615459
    13  H    0.000004   0.000006  -0.000452   0.005162  -0.005473   0.005924
    14  H    0.000006   0.000004   0.005162  -0.000452   0.005924  -0.005473
    15  H    0.000000   0.000000   0.000002   0.000002  -0.000024  -0.000024
    16  H   -0.000002   0.000001   0.000006   0.000004   0.005146  -0.000421
    17  H    0.000001  -0.000002   0.000004   0.000006  -0.000421   0.005146
              13         14         15         16         17
     1  C    0.000049   0.000049   0.000002   0.000001   0.000001
     2  C   -0.003918  -0.003918  -0.000170   0.000050   0.000050
     3  C   -0.039418  -0.039418   0.004753  -0.005129  -0.005129
     4  C    0.378312   0.378312  -0.029493  -0.035392  -0.035392
     5  C   -0.039728  -0.039728   0.370207   0.378566   0.378567
     6  H    0.000002   0.000002   0.000000   0.000000   0.000000
     7  H    0.000004   0.000006   0.000000  -0.000002   0.000001
     8  H    0.000006   0.000004   0.000000   0.000001  -0.000002
     9  H   -0.000452   0.005162   0.000002   0.000006   0.000004
    10  H    0.005162  -0.000452   0.000002   0.000004   0.000006
    11  H   -0.005473   0.005924  -0.000024   0.005146  -0.000421
    12  H    0.005924  -0.005473  -0.000024  -0.000421   0.005146
    13  H    0.610987  -0.039068  -0.002928  -0.004777   0.005523
    14  H   -0.039068   0.610987  -0.002928   0.005523  -0.004777
    15  H   -0.002928  -0.002928   0.584044  -0.030944  -0.030944
    16  H   -0.004777   0.005523  -0.030944   0.579654  -0.032308
    17  H    0.005523  -0.004777  -0.030944  -0.032308   0.579654
 Mulliken charges:
               1
     1  C   -0.439699
     2  C   -0.246082
     3  C   -0.237412
     4  C   -0.246082
     5  C   -0.439699
     6  H    0.138445
     7  H    0.140024
     8  H    0.140023
     9  H    0.129793
    10  H    0.129793
    11  H    0.126410
    12  H    0.126410
    13  H    0.129793
    14  H    0.129793
    15  H    0.138445
    16  H    0.140023
    17  H    0.140024
 Sum of Mulliken charges =   0.00000
 Mulliken charges with hydrogens summed into heavy atoms:
               1
     1  C   -0.021207
     2  C    0.013504
     3  C    0.015407
     4  C    0.013504
     5  C   -0.021207
 Electronic spatial extent (au):  <R**2>=            705.8173
 Charge=              0.0000 electrons
 Dipole moment (field-independent basis, Debye):
    X=              0.0000    Y=             -0.0707    Z=              0.0000  Tot=              0.0707
 Quadrupole moment (field-independent basis, Debye-Ang):
   XX=            -36.0013   YY=            -35.0112   ZZ=            -34.0633
   XY=              0.0000   XZ=              0.0000   YZ=              0.0000
 Traceless Quadrupole moment (field-independent basis, Debye-Ang):
   XX=             -0.9760   YY=              0.0141   ZZ=              0.9620
   XY=              0.0000   XZ=              0.0000   YZ=              0.0000
 Octapole moment (field-independent basis, Debye-Ang**2):
  XXX=              0.0000  YYY=             -0.1546  ZZZ=              0.0000  XYY=              0.0000
  XXY=             -2.5039  XXZ=              0.0000  XZZ=              0.0000  YZZ=              0.4367
  YYZ=              0.0000  XYZ=              0.0000
 Hexadecapole moment (field-independent basis, Debye-Ang**3):
 XXXX=           -804.9411 YYYY=           -119.3668 ZZZZ=            -69.9129 XXXY=              0.0000
 XXXZ=              0.0000 YYYX=              0.0000 YYYZ=              0.0000 ZZZX=              0.0000
 ZZZY=              0.0000 XXYY=           -151.1715 XXZZ=           -142.8675 YYZZ=            -28.6256
 XXYZ=              0.0000 YYXZ=              0.0000 ZZXY=              0.0000
 N-N= 1.856959705205D+02 E-N=-8.276386785315D+02  KE= 1.958306412991D+02
 No NMR shielding tensors so no spin-rotation constants.
 Leave Link  601 at Thu Mar 19 18:05:10 2026, MaxMem=   536870912 cpu:         1.0
 (Enter C:\G09W\l701.exe)
 Compute integral first derivatives.
 ... and contract with generalized density number  0.
 Leave Link  701 at Thu Mar 19 18:05:10 2026, MaxMem=   536870912 cpu:         0.0
 (Enter C:\G09W\l702.exe)
 L702 exits ... SP integral derivatives will be done elsewhere.
 Leave Link  702 at Thu Mar 19 18:05:10 2026, MaxMem=   536870912 cpu:         0.0
 (Enter C:\G09W\l703.exe)
 Compute integral first derivatives, UseDBF=F ICtDFT=           0.
 Integral derivatives from FoFJK, PRISM(SPDF).
 Calling FoFJK, ICntrl=      2127 FMM=F ISym2X=0 I1Cent= 0 IOpClX= 0 NMat=1 NMatS=1 NMatT=0.
 FoFJK:  IHMeth= 1 ICntrl=    2127 DoSepK=F KAlg= 0 I1Cent=   0 FoldK=F
 IRaf=         0 NMat=   1 IRICut=       1 DoRegI=T DoRafI=F ISym2E= 0.
 FoFCou: FMM=F IPFlag=           0 FMFlag=      100000 FMFlg1=         800
         NFxFlg=           0 DoJE=F BraDBF=F KetDBF=F FulRan=T
         wScrn=  0.000000 ICntrl=    2127 IOpCl=  0 I1Cent=           0 NGrid=           0
         NMat0=    1 NMatS0=      1 NMatT0=    0 NMatD0=    1 NMtDS0=    0 NMtDT0=    0
 Symmetry not used in FoFCou.
 Leave Link  703 at Thu Mar 19 18:05:13 2026, MaxMem=   536870912 cpu:         2.0
 (Enter C:\G09W\l716.exe)
 Dipole        = 3.41572006D-08-2.78072582D-02-2.50804590D-07
 ***** Axes restored to original set *****
 -------------------------------------------------------------------
 Center     Atomic                   Forces (Hartrees/Bohr)
 Number     Number              X              Y              Z
 -------------------------------------------------------------------
      1        6          -0.006405980   -0.001319579   -0.001020599
      2        6          -0.000302898    0.003599031    0.006115721
      3        6          -0.002640358   -0.006297783   -0.010106163
      4        6           0.003272813    0.003484474    0.005252699
      5        6           0.005144720   -0.001689436   -0.003807789
      6        1          -0.002607084    0.000898527    0.002000629
      7        1          -0.000559021    0.001227755    0.001177131
      8        1          -0.000462830    0.000362747    0.001690754
      9        1           0.000974334   -0.001505484   -0.001765102
     10        1           0.000882042   -0.000677195   -0.002257666
     11        1           0.000287209    0.001546153    0.000985069
     12        1           0.000438677    0.000185332    0.001793504
     13        1          -0.001852621   -0.000589690   -0.001597423
     14        1          -0.001760623   -0.001417813   -0.001105354
     15        1           0.003281282    0.000709805    0.000580257
     16        1           0.001107058    0.001173982    0.000775179
     17        1           0.001203280    0.000309174    0.001289153
 -------------------------------------------------------------------
 Cartesian Forces:  Max     0.010106163 RMS     0.002819920
 Leave Link  716 at Thu Mar 19 18:05:13 2026, MaxMem=   536870912 cpu:         0.0
 (Enter C:\G09W\l103.exe)

 GradGradGradGradGradGradGradGradGradGradGradGradGradGradGradGradGradGrad
 Berny optimization.
 FormGI is forming the generalized inverse of G from B-inverse, IUseBI=4.
 Internal  Forces:  Max     0.009753858 RMS     0.002762037
 Search for a local minimum.
 Step number   1 out of a maximum of   92
 All quantities printed in internal units (Hartrees-Bohrs-Radians)
 RMS Force = .27620D-02 SwitMx=.10000D-02 MixMth= 1
 Mixed Optimization -- RFO/linear search
 Second derivative matrix not updated -- first step.
 ITU=  0
     Eigenvalues ---    0.00390   0.00390   0.00496   0.00496   0.03689
     Eigenvalues ---    0.03721   0.03721   0.04893   0.04928   0.04928
     Eigenvalues ---    0.05607   0.05607   0.05702   0.05702   0.08116
     Eigenvalues ---    0.08168   0.08168   0.12038   0.12068   0.12068
     Eigenvalues ---    0.16000   0.16000   0.16000   0.16000   0.16000
     Eigenvalues ---    0.16000   0.21897   0.21906   0.21906   0.29567
     Eigenvalues ---    0.29567   0.30330   0.30330   0.34029   0.34029
     Eigenvalues ---    0.34103   0.34103   0.34103   0.34103   0.34277
     Eigenvalues ---    0.34277   0.34277   0.34277   0.34299   0.34299
 RFO step:  Lambda=-3.05916431D-03 EMin= 3.89572602D-03
 Linear search not attempted -- first point.
 Iteration  1 RMS(Cart)=  0.03863915 RMS(Int)=  0.00024002
 Iteration  2 RMS(Cart)=  0.00032039 RMS(Int)=  0.00014387
 Iteration  3 RMS(Cart)=  0.00000013 RMS(Int)=  0.00014387
 ITry= 1 IFail=0 DXMaxC= 1.24D-01 DCOld= 1.00D+10 DXMaxT= 3.00D-01 DXLimC= 3.00D+00 Rises=F
 Variable       Old X    -DE/DX   Delta X   Delta X   Delta X     New X
                                 (Linear)    (Quad)   (Total)
    R1        2.87310   0.00975   0.00000   0.03184   0.03184   2.90494
    R2        2.06829   0.00156   0.00000   0.00450   0.00450   2.07280
    R3        2.06866   0.00131   0.00000   0.00379   0.00379   2.07245
    R4        2.06866   0.00131   0.00000   0.00379   0.00379   2.07245
    R5        2.88836   0.00553   0.00000   0.01850   0.01850   2.90686
    R6        2.07157   0.00158   0.00000   0.00460   0.00460   2.07618
    R7        2.07157   0.00158   0.00000   0.00461   0.00461   2.07618
    R8        2.88836   0.00553   0.00000   0.01850   0.01850   2.90686
    R9        2.07280   0.00164   0.00000   0.00476   0.00476   2.07757
   R10        2.07280   0.00164   0.00000   0.00476   0.00476   2.07757
   R11        2.87310   0.00975   0.00000   0.03184   0.03184   2.90494
   R12        2.07157   0.00158   0.00000   0.00460   0.00460   2.07618
   R13        2.07157   0.00158   0.00000   0.00460   0.00460   2.07618
   R14        2.06829   0.00156   0.00000   0.00450   0.00450   2.07280
   R15        2.06866   0.00131   0.00000   0.00379   0.00379   2.07245
   R16        2.06866   0.00131   0.00000   0.00379   0.00379   2.07245
    A1        1.92442   0.00409   0.00000   0.02833   0.02820   1.95262
    A2        1.93734   0.00059   0.00000   0.00201   0.00195   1.93929
    A3        1.93734   0.00059   0.00000   0.00201   0.00195   1.93929
    A4        1.88635  -0.00208   0.00000  -0.00967  -0.00979   1.87656
    A5        1.88635  -0.00208   0.00000  -0.00967  -0.00979   1.87656
    A6        1.89038  -0.00135   0.00000  -0.01434  -0.01433   1.87605
    A7        1.94600   0.00708   0.00000   0.03810   0.03798   1.98398
    A8        1.90493  -0.00113   0.00000   0.00460   0.00470   1.90963
    A9        1.90493  -0.00113   0.00000   0.00460   0.00470   1.90963
   A10        1.91751  -0.00273   0.00000  -0.01532  -0.01572   1.90179
   A11        1.91751  -0.00273   0.00000  -0.01532  -0.01572   1.90179
   A12        1.87137   0.00039   0.00000  -0.01867  -0.01896   1.85241
   A13        1.94304   0.00935   0.00000   0.04827   0.04814   1.99118
   A14        1.91250  -0.00267   0.00000  -0.00871  -0.00886   1.90364
   A15        1.91250  -0.00267   0.00000  -0.00871  -0.00886   1.90364
   A16        1.91250  -0.00267   0.00000  -0.00871  -0.00886   1.90364
   A17        1.91250  -0.00267   0.00000  -0.00871  -0.00886   1.90364
   A18        1.86931   0.00098   0.00000  -0.01601  -0.01623   1.85308
   A19        1.94600   0.00708   0.00000   0.03810   0.03798   1.98398
   A20        1.91751  -0.00273   0.00000  -0.01532  -0.01572   1.90179
   A21        1.91751  -0.00273   0.00000  -0.01532  -0.01572   1.90179
   A22        1.90493  -0.00113   0.00000   0.00460   0.00470   1.90963
   A23        1.90493  -0.00113   0.00000   0.00460   0.00470   1.90963
   A24        1.87137   0.00039   0.00000  -0.01867  -0.01896   1.85241
   A25        1.92442   0.00409   0.00000   0.02833   0.02820   1.95262
   A26        1.93734   0.00059   0.00000   0.00201   0.00195   1.93929
   A27        1.93734   0.00059   0.00000   0.00201   0.00195   1.93929
   A28        1.88635  -0.00208   0.00000  -0.00967  -0.00979   1.87656
   A29        1.88635  -0.00208   0.00000  -0.00967  -0.00979   1.87656
   A30        1.89038  -0.00135   0.00000  -0.01434  -0.01433   1.87605
    D1       -3.14159   0.00000   0.00000   0.00000   0.00000  -3.14159
    D2       -1.02004   0.00041   0.00000   0.00860   0.00873  -1.01132
    D3        1.02005  -0.00041   0.00000  -0.00860  -0.00873   1.01132
    D4        1.05174  -0.00046   0.00000  -0.00771  -0.00774   1.04400
    D5       -3.10990  -0.00005   0.00000   0.00089   0.00098  -3.10892
    D6       -1.06981  -0.00086   0.00000  -0.01631  -0.01647  -1.08628
    D7       -1.05174   0.00046   0.00000   0.00771   0.00774  -1.04399
    D8        1.06981   0.00086   0.00000   0.01631   0.01647   1.08628
    D9        3.10990   0.00005   0.00000  -0.00089  -0.00098   3.10892
   D10        3.14159   0.00000   0.00000   0.00000   0.00000   3.14159
   D11       -1.02316   0.00096   0.00000   0.01478   0.01476  -1.00840
   D12        1.02316  -0.00096   0.00000  -0.01478  -0.01476   1.00839
   D13        1.02736  -0.00140   0.00000  -0.02055  -0.02038   1.00698
   D14       -3.13739  -0.00043   0.00000  -0.00578  -0.00562   3.14018
   D15       -1.09108  -0.00236   0.00000  -0.03533  -0.03514  -1.12622
   D16       -1.02736   0.00140   0.00000   0.02056   0.02038  -1.00698
   D17        1.09107   0.00236   0.00000   0.03533   0.03514   1.12621
   D18        3.13739   0.00043   0.00000   0.00578   0.00562  -3.14018
   D19       -3.14159   0.00000   0.00000   0.00000   0.00000   3.14159
   D20        1.02736  -0.00140   0.00000  -0.02055  -0.02038   1.00698
   D21       -1.02736   0.00140   0.00000   0.02055   0.02038  -1.00698
   D22        1.02316  -0.00096   0.00000  -0.01478  -0.01476   1.00840
   D23       -1.09107  -0.00236   0.00000  -0.03533  -0.03514  -1.12621
   D24        3.13739   0.00043   0.00000   0.00578   0.00562  -3.14018
   D25       -1.02316   0.00096   0.00000   0.01478   0.01476  -1.00840
   D26       -3.13739  -0.00043   0.00000  -0.00578  -0.00562   3.14018
   D27        1.09107   0.00236   0.00000   0.03533   0.03514   1.12621
   D28       -3.14159   0.00000   0.00000   0.00000   0.00000  -3.14159
   D29       -1.05174   0.00046   0.00000   0.00771   0.00774  -1.04399
   D30        1.05174  -0.00046   0.00000  -0.00771  -0.00774   1.04400
   D31       -1.02004   0.00041   0.00000   0.00860   0.00873  -1.01132
   D32        1.06981   0.00086   0.00000   0.01631   0.01647   1.08628
   D33       -3.10990  -0.00005   0.00000   0.00089   0.00098  -3.10892
   D34        1.02005  -0.00041   0.00000  -0.00860  -0.00873   1.01132
   D35        3.10990   0.00005   0.00000  -0.00089  -0.00098   3.10892
   D36       -1.06981  -0.00086   0.00000  -0.01631  -0.01647  -1.08628
         Item               Value     Threshold  Converged?
 Maximum Force            0.009754     0.000450     NO 
 RMS     Force            0.002762     0.000300     NO 
 Maximum Displacement     0.124063     0.001800     NO 
 RMS     Displacement     0.038389     0.001200     NO 
 Predicted change in Energy=-1.560188D-03
 Lowest energy point so far.  Saving SCF results.
 GradGradGradGradGradGradGradGradGradGradGradGradGradGradGradGradGradGrad

 Leave Link  103 at Thu Mar 19 18:05:13 2026, MaxMem=   536870912 cpu:         0.0
 (Enter C:\G09W\l202.exe)
                          Input orientation:                          
 ---------------------------------------------------------------------
 Center     Atomic      Atomic             Coordinates (Angstroms)
 Number     Number       Type             X           Y           Z
 ---------------------------------------------------------------------
      1          6           0       -2.436788    0.234567    0.798529
      2          6           0       -1.372406   -0.241993   -0.202993
      3          6           0        0.062826    0.149867    0.187840
      4          6           0        1.135802   -0.322412   -0.808086
      5          6           0        2.566208    0.074159   -0.408419
      6          1           0       -3.447772   -0.060204    0.491677
      7          1           0       -2.426643    1.326880    0.895894
      8          1           0       -2.258233   -0.186843    1.795155
      9          1           0       -1.429262   -1.334521   -0.304068
     10          1           0       -1.596501    0.168676   -1.197076
     11          1           0        0.122051    1.243090    0.288045
     12          1           0        0.289443   -0.261493    1.181878
     13          1           0        0.906881    0.088411   -1.801004
     14          1           0        1.074119   -1.414786   -0.907995
     15          1           0        3.306513   -0.276761   -1.137762
     16          1           0        2.667676    1.163544   -0.333085
     17          1           0        2.836085   -0.350179    0.566176
 ---------------------------------------------------------------------
                    Distance matrix (angstroms):
                    1          2          3          4          5
     1  C    0.000000
     2  C    1.537226   0.000000
     3  C    2.574526   1.538244   0.000000
     4  C    3.956619   2.581416   1.538244   0.000000
     5  C    5.149022   3.956619   2.574526   1.537227   0.000000
     6  H    1.096876   2.196078   3.529978   4.771507   6.082449
     7  H    1.096691   2.186397   2.843265   4.279570   5.310283
     8  H    1.096691   2.186397   2.843264   4.279570   5.310282
     9  H    2.166302   1.098666   2.161414   2.803204   4.237813
    10  H    2.166302   1.098666   2.161414   2.803205   4.237813
    11  H    2.797386   2.163328   1.099402   2.163328   2.797386
    12  H    2.797385   2.163329   1.099402   2.163329   2.797386
    13  H    4.237813   2.803204   2.161414   1.098666   2.166302
    14  H    4.237812   2.803204   2.161414   1.098666   2.166302
    15  H    6.082449   4.771507   3.529978   2.196078   1.096876
    16  H    5.310283   4.279570   2.843264   2.186397   1.096691
    17  H    5.310283   4.279571   2.843265   2.186397   1.096691
                    6          7          8          9         10
     6  H    0.000000
     7  H    1.769208   0.000000
     8  H    1.769208   1.768725   0.000000
     9  H    2.516242   3.085082   2.532014   0.000000
    10  H    2.516243   2.532014   3.085082   1.756427   0.000000
    11  H    3.805743   2.621515   3.159405   3.066146   2.512642
    12  H    3.805742   3.159405   2.621514   2.512642   3.066146
    13  H    4.923563   4.463121   4.798550   3.118192   2.576449
    14  H    4.923563   4.798550   4.463120   2.576449   3.118193
    15  H    6.951427   6.290986   6.290985   4.923563   4.923563
    16  H    6.290985   5.243010   5.533311   4.798549   4.463121
    17  H    6.290986   5.533313   5.243010   4.463121   4.798550
                   11         12         13         14         15
    11  H    0.000000
    12  H    1.758047   0.000000
    13  H    2.512642   3.066146   0.000000
    14  H    3.066146   2.512642   1.756427   0.000000
    15  H    3.805742   3.805743   2.516242   2.516243   0.000000
    16  H    2.621514   3.159405   2.532015   3.085082   1.769208
    17  H    3.159406   2.621516   3.085082   2.532014   1.769208
                   16         17
    16  H    0.000000
    17  H    1.768725   0.000000
 Stoichiometry    C5H12
 Framework group  C1[X(C5H12)]
 Deg. of freedom    45
 Full point group                 C1      NOp   1
 RotChk:  IX=0 Diff= 2.27D-07
 Largest Abelian subgroup         C1      NOp   1
 Largest concise Abelian subgroup C1      NOp   1
                         Standard orientation:                         
 ---------------------------------------------------------------------
 Center     Atomic      Atomic             Coordinates (Angstroms)
 Number     Number       Type             X           Y           Z
 ---------------------------------------------------------------------
      1          6           0       -2.574511    0.323362    0.000000
      2          6           0       -1.290708   -0.522165    0.000000
      3          6           0        0.000000    0.314655    0.000000
      4          6           0        1.290708   -0.522164    0.000000
      5          6           0        2.574511    0.323362    0.000000
      6          1           0       -3.475713   -0.301915    0.000001
      7          1           0       -2.621505    0.970220   -0.884362
      8          1           0       -2.621505    0.970220    0.884363
      9          1           0       -1.288224   -1.182318    0.878213
     10          1           0       -1.288225   -1.182318   -0.878214
     11          1           0        0.000000    0.974959   -0.879024
     12          1           0        0.000000    0.974960    0.879023
     13          1           0        1.288225   -1.182318   -0.878213
     14          1           0        1.288225   -1.182317    0.878214
     15          1           0        3.475713   -0.301915   -0.000001
     16          1           0        2.621505    0.970221   -0.884362
     17          1           0        2.621505    0.970220    0.884363
 ---------------------------------------------------------------------
 Rotational constants (GHZ):     17.0810042      1.9026333      1.8077075
 Leave Link  202 at Thu Mar 19 18:05:13 2026, MaxMem=   536870912 cpu:         0.0
 (Enter C:\G09W\l301.exe)
 Standard basis: 6-31G(d) (6D, 7F)
 Ernie: Thresh=  0.10000D-02 Tol=  0.10000D-05 Strict=F.
 There are    99 symmetry adapted cartesian basis functions of A   symmetry.
 There are    99 symmetry adapted basis functions of A   symmetry.
    99 basis functions,   188 primitive gaussians,    99 cartesian basis functions
    21 alpha electrons       21 beta electrons
       nuclear repulsion energy       183.6744653006 Hartrees.
 IExCor=  402 DFT=T Ex+Corr=B3LYP ExCW=0 ScaHFX=  0.200000
 ScaDFX=  0.800000  0.720000  1.000000  0.810000 ScalE2=  1.000000  1.000000
 IRadAn=      0 IRanWt=     -1 IRanGd=            0 ICorTp=0 IEmpDi=  4
 NAtoms=   17 NActive=   17 NUniq=   17 SFac= 1.00D+00 NAtFMM=   60 NAOKFM=F Big=F
 Integral buffers will be    131072 words long.
 Raffenetti 2 integral format.
 Two-electron integral symmetry is turned on.
 Leave Link  301 at Thu Mar 19 18:05:14 2026, MaxMem=   536870912 cpu:         0.0
 (Enter C:\G09W\l302.exe)
 NPDir=0 NMtPBC=     1 NCelOv=     1 NCel=       1 NClECP=     1 NCelD=      1
         NCelK=      1 NCelE2=     1 NClLst=     1 CellRange=     0.0.
 One-electron integrals computed using PRISM.
 NBasis=    99 RedAO= T EigKep=  3.98D-03  NBF=    99
 NBsUse=    99 1.00D-06 EigRej= -1.00D+00 NBFU=    99
 Precomputing XC quadrature grid using
 IXCGrd= 4 IRadAn=           0 IRanWt=          -1 IRanGd=           0 AccXCQ= 0.00D+00.
 Generated NRdTot=       0 NPtTot=           0 NUsed=           0 NTot=          32
 NSgBfM=    99    99    99    99    99 MxSgAt=    17 MxSgA2=    17.
 Leave Link  302 at Thu Mar 19 18:05:14 2026, MaxMem=   536870912 cpu:         0.0
 (Enter C:\G09W\l303.exe)
 DipDrv:  MaxL=1.
 Leave Link  303 at Thu Mar 19 18:05:14 2026, MaxMem=   536870912 cpu:         0.0
 (Enter C:\G09W\l401.exe)
 Initial guess from the checkpoint file:  "pentane_rdkit.chk"
 B after Tr=     0.000000    0.000000    0.000000
         Rot=    1.000000    0.000000    0.000000    0.000000 Ang=   0.00 deg.
 Guess basis will be translated and rotated to current coordinates.
 JPrj=2 DoOrth=T DoCkMO=T.
 Generating alternative initial guess.
 ExpMin= 1.61D-01 ExpMax= 3.05D+03 ExpMxC= 4.57D+02 IAcc=1 IRadAn=         1 AccDes= 0.00D+00
 Harris functional with IExCor=  402 and IRadAn=       1 diagonalized for initial guess.
 HarFok:  IExCor=  402 AccDes= 0.00D+00 IRadAn=         1 IDoV= 1 UseB2=F ITyADJ=14
 ICtDFT=  3500011 ScaDFX=  1.000000  1.000000  1.000000  1.000000
 FoFCou: FMM=F IPFlag=           0 FMFlag=      100000 FMFlg1=           0
         NFxFlg=           0 DoJE=T BraDBF=F KetDBF=T FulRan=T
         wScrn=  0.000000 ICntrl=     500 IOpCl=  0 I1Cent=   200000004 NGrid=           0
         NMat0=    1 NMatS0=      1 NMatT0=    0 NMatD0=    1 NMtDS0=    0 NMtDT0=    0
 Petite list used in FoFCou.
 Harris En= -197.847879907813    
 Leave Link  401 at Thu Mar 19 18:05:15 2026, MaxMem=   536870912 cpu:         1.0
 (Enter C:\G09W\l502.exe)
 Closed shell SCF:
 Using DIIS extrapolation, IDIIS=  1040.
 Integral symmetry usage will be decided dynamically.
 Keep R1 ints in memory in canonical form, NReq=13222677.
 IVT=       49318 IEndB=       49318 NGot=   536870912 MDV=   524567870
 LenX=   524567870 LenY=   524557628
 Requested convergence on RMS density matrix=1.00D-08 within 128 cycles.
 Requested convergence on MAX density matrix=1.00D-06.
 Requested convergence on             energy=1.00D-06.
 No special actions if energy rises.
 FoFCou: FMM=F IPFlag=           0 FMFlag=           0 FMFlg1=           0
         NFxFlg=           0 DoJE=F BraDBF=F KetDBF=F FulRan=T
         wScrn=  0.000000 ICntrl=     600 IOpCl=  0 I1Cent=           0 NGrid=           0
         NMat0=    1 NMatS0=   4950 NMatT0=    0 NMatD0=    1 NMtDS0=    0 NMtDT0=    0
 Symmetry not used in FoFCou.
 Integral accuracy reduced to 1.0D-05 until final iterations.

 Cycle   1  Pass 0  IDiag  1:
 E= -197.771231180209    
 DIIS: error= 1.67D-03 at cycle   1 NSaved=   1.
 NSaved= 1 IEnMin= 1 EnMin= -197.771231180209     IErMin= 1 ErrMin= 1.67D-03
 ErrMax= 1.67D-03  0.00D+00 EMaxC= 1.00D-01 BMatC= 2.48D-04 BMatP= 2.48D-04
 IDIUse=3 WtCom= 9.83D-01 WtEn= 1.67D-02
 Coeff-Com:  0.100D+01
 Coeff-En:   0.100D+01
 Coeff:      0.100D+01
 Gap=     1.927 Goal=   None    Shift=    0.000
 GapD=    1.927 DampG=2.000 DampE=1.000 DampFc=2.0000 IDamp=-1.
 RMSDP=2.43D-04 MaxDP=2.11D-03              OVMax= 5.53D-03

 Cycle   2  Pass 0  IDiag  1:
 E= -197.771542335092     Delta-E=       -0.000311154883 Rises=F Damp=F
 DIIS: error= 4.81D-04 at cycle   2 NSaved=   2.
 NSaved= 2 IEnMin= 2 EnMin= -197.771542335092     IErMin= 2 ErrMin= 4.81D-04
 ErrMax= 4.81D-04  0.00D+00 EMaxC= 1.00D-01 BMatC= 2.22D-05 BMatP= 2.48D-04
 IDIUse=3 WtCom= 9.95D-01 WtEn= 4.81D-03
 Coeff-Com:  0.138D+00 0.862D+00
 Coeff-En:   0.000D+00 0.100D+01
 Coeff:      0.137D+00 0.863D+00
 Gap=     0.406 Goal=   None    Shift=    0.000
 RMSDP=8.55D-05 MaxDP=1.18D-03 DE=-3.11D-04 OVMax= 1.58D-03

 Cycle   3  Pass 0  IDiag  1:
 E= -197.771551149295     Delta-E=       -0.000008814203 Rises=F Damp=F
 DIIS: error= 4.36D-04 at cycle   3 NSaved=   3.
 NSaved= 3 IEnMin= 3 EnMin= -197.771551149295     IErMin= 3 ErrMin= 4.36D-04
 ErrMax= 4.36D-04  0.00D+00 EMaxC= 1.00D-01 BMatC= 1.40D-05 BMatP= 2.22D-05
 IDIUse=3 WtCom= 9.96D-01 WtEn= 4.36D-03
 Coeff-Com: -0.483D-02 0.439D+00 0.566D+00
 Coeff-En:   0.000D+00 0.380D+00 0.620D+00
 Coeff:     -0.481D-02 0.439D+00 0.566D+00
 Gap=     0.406 Goal=   None    Shift=    0.000
 RMSDP=3.93D-05 MaxDP=5.69D-04 DE=-8.81D-06 OVMax= 6.97D-04

 Cycle   4  Pass 0  IDiag  1:
 E= -197.771565526276     Delta-E=       -0.000014376981 Rises=F Damp=F
 DIIS: error= 4.49D-05 at cycle   4 NSaved=   4.
 NSaved= 4 IEnMin= 4 EnMin= -197.771565526276     IErMin= 4 ErrMin= 4.49D-05
 ErrMax= 4.49D-05  0.00D+00 EMaxC= 1.00D-01 BMatC= 1.46D-07 BMatP= 1.40D-05
 IDIUse=1 WtCom= 1.00D+00 WtEn= 0.00D+00
 Coeff-Com: -0.698D-02 0.100D+00 0.175D+00 0.732D+00
 Coeff:     -0.698D-02 0.100D+00 0.175D+00 0.732D+00
 Gap=     0.406 Goal=   None    Shift=    0.000
 RMSDP=4.66D-06 MaxDP=4.83D-05 DE=-1.44D-05 OVMax= 1.02D-04

 Initial convergence to 1.0D-05 achieved.  Increase integral accuracy.
 Cycle   5  Pass 1  IDiag  1:
 E= -197.771672773558     Delta-E=       -0.000107247282 Rises=F Damp=F
 DIIS: error= 1.25D-05 at cycle   1 NSaved=   1.
 NSaved= 1 IEnMin= 1 EnMin= -197.771672773558     IErMin= 1 ErrMin= 1.25D-05
 ErrMax= 1.25D-05  0.00D+00 EMaxC= 1.00D-01 BMatC= 1.68D-08 BMatP= 1.68D-08
 IDIUse=1 WtCom= 1.00D+00 WtEn= 0.00D+00
 Coeff-Com:  0.100D+01
 Coeff:      0.100D+01
 Gap=     0.406 Goal=   None    Shift=    0.000
 RMSDP=4.66D-06 MaxDP=4.83D-05 DE=-1.07D-04 OVMax= 4.21D-05

 Cycle   6  Pass 1  IDiag  1:
 E= -197.771672795643     Delta-E=       -0.000000022085 Rises=F Damp=F
 DIIS: error= 4.16D-06 at cycle   2 NSaved=   2.
 NSaved= 2 IEnMin= 2 EnMin= -197.771672795643     IErMin= 2 ErrMin= 4.16D-06
 ErrMax= 4.16D-06  0.00D+00 EMaxC= 1.00D-01 BMatC= 2.26D-09 BMatP= 1.68D-08
 IDIUse=1 WtCom= 1.00D+00 WtEn= 0.00D+00
 Coeff-Com:  0.175D+00 0.825D+00
 Coeff:      0.175D+00 0.825D+00
 Gap=     0.406 Goal=   None    Shift=    0.000
 RMSDP=8.28D-07 MaxDP=1.19D-05 DE=-2.21D-08 OVMax= 1.78D-05

 Cycle   7  Pass 1  IDiag  1:
 E= -197.771672796460     Delta-E=       -0.000000000817 Rises=F Damp=F
 DIIS: error= 3.50D-06 at cycle   3 NSaved=   3.
 NSaved= 3 IEnMin= 3 EnMin= -197.771672796460     IErMin= 3 ErrMin= 3.50D-06
 ErrMax= 3.50D-06  0.00D+00 EMaxC= 1.00D-01 BMatC= 1.52D-09 BMatP= 2.26D-09
 IDIUse=1 WtCom= 1.00D+00 WtEn= 0.00D+00
 Coeff-Com: -0.123D-01 0.449D+00 0.564D+00
 Coeff:     -0.123D-01 0.449D+00 0.564D+00
 Gap=     0.406 Goal=   None    Shift=    0.000
 RMSDP=3.45D-07 MaxDP=6.12D-06 DE=-8.17D-10 OVMax= 7.94D-06

 Cycle   8  Pass 1  IDiag  1:
 E= -197.771672797927     Delta-E=       -0.000000001467 Rises=F Damp=F
 DIIS: error= 3.31D-07 at cycle   4 NSaved=   4.
 NSaved= 4 IEnMin= 4 EnMin= -197.771672797927     IErMin= 4 ErrMin= 3.31D-07
 ErrMax= 3.31D-07  0.00D+00 EMaxC= 1.00D-01 BMatC= 1.08D-11 BMatP= 1.52D-09
 IDIUse=1 WtCom= 1.00D+00 WtEn= 0.00D+00
 Coeff-Com: -0.769D-02 0.117D+00 0.174D+00 0.716D+00
 Coeff:     -0.769D-02 0.117D+00 0.174D+00 0.716D+00
 Gap=     0.406 Goal=   None    Shift=    0.000
 RMSDP=4.15D-08 MaxDP=6.42D-07 DE=-1.47D-09 OVMax= 7.81D-07

 Cycle   9  Pass 1  IDiag  1:
 E= -197.771672797933     Delta-E=       -0.000000000006 Rises=F Damp=F
 DIIS: error= 1.09D-07 at cycle   5 NSaved=   5.
 NSaved= 5 IEnMin= 5 EnMin= -197.771672797933     IErMin= 5 ErrMin= 1.09D-07
 ErrMax= 1.09D-07  0.00D+00 EMaxC= 1.00D-01 BMatC= 8.09D-13 BMatP= 1.08D-11
 IDIUse=1 WtCom= 1.00D+00 WtEn= 0.00D+00
 Coeff-Com: -0.316D-02 0.397D-01 0.614D-01 0.313D+00 0.589D+00
 Coeff:     -0.316D-02 0.397D-01 0.614D-01 0.313D+00 0.589D+00
 Gap=     0.406 Goal=   None    Shift=    0.000
 RMSDP=1.12D-08 MaxDP=2.27D-07 DE=-5.57D-12 OVMax= 2.22D-07

 Cycle  10  Pass 1  IDiag  1:
 E= -197.771672797940     Delta-E=       -0.000000000007 Rises=F Damp=F
 DIIS: error= 2.20D-08 at cycle   6 NSaved=   6.
 NSaved= 6 IEnMin= 6 EnMin= -197.771672797940     IErMin= 6 ErrMin= 2.20D-08
 ErrMax= 2.20D-08  0.00D+00 EMaxC= 1.00D-01 BMatC= 4.92D-14 BMatP= 8.09D-13
 IDIUse=1 WtCom= 1.00D+00 WtEn= 0.00D+00
 Coeff-Com: -0.305D-03 0.191D-02 0.366D-02 0.380D-01 0.222D+00 0.735D+00
 Coeff:     -0.305D-03 0.191D-02 0.366D-02 0.380D-01 0.222D+00 0.735D+00
 Gap=     0.406 Goal=   None    Shift=    0.000
 RMSDP=2.64D-09 MaxDP=4.03D-08 DE=-7.33D-12 OVMax= 4.98D-08

 SCF Done:  E(RB3LYP) =  -197.771672798     A.U. after   10 cycles
            NFock= 10  Conv=0.26D-08     -V/T= 2.0107
 KE= 1.956848524046D+02 PE=-8.234676723442D+02 EE= 2.463366818411D+02
 Leave Link  502 at Thu Mar 19 18:05:23 2026, MaxMem=   536870912 cpu:         8.0
 (Enter C:\G09W\l701.exe)
 Compute integral first derivatives.
 ... and contract with generalized density number  0.
 Leave Link  701 at Thu Mar 19 18:05:23 2026, MaxMem=   536870912 cpu:         0.0
 (Enter C:\G09W\l702.exe)
 L702 exits ... SP integral derivatives will be done elsewhere.
 Leave Link  702 at Thu Mar 19 18:05:23 2026, MaxMem=   536870912 cpu:         0.0
 (Enter C:\G09W\l703.exe)
 Compute integral first derivatives, UseDBF=F ICtDFT=           0.
 Integral derivatives from FoFJK, PRISM(SPDF).
 Calling FoFJK, ICntrl=      2127 FMM=F ISym2X=0 I1Cent= 0 IOpClX= 0 NMat=1 NMatS=1 NMatT=0.
 FoFJK:  IHMeth= 1 ICntrl=    2127 DoSepK=F KAlg= 0 I1Cent=   0 FoldK=F
 IRaf=         0 NMat=   1 IRICut=       1 DoRegI=T DoRafI=F ISym2E= 0.
 FoFCou: FMM=F IPFlag=           0 FMFlag=      100000 FMFlg1=         800
         NFxFlg=           0 DoJE=F BraDBF=F KetDBF=F FulRan=T
         wScrn=  0.000000 ICntrl=    2127 IOpCl=  0 I1Cent=           0 NGrid=           0
         NMat0=    1 NMatS0=      1 NMatT0=    0 NMatD0=    1 NMtDS0=    0 NMtDT0=    0
 Symmetry not used in FoFCou.
 Leave Link  703 at Thu Mar 19 18:05:25 2026, MaxMem=   536870912 cpu:         1.0
 (Enter C:\G09W\l716.exe)
 Dipole        =-4.02684677D-08-1.95279933D-02 1.58529596D-08
 ***** Axes restored to original set *****
 -------------------------------------------------------------------
 Center     Atomic                   Forces (Hartrees/Bohr)
 Number     Number              X              Y              Z
 -------------------------------------------------------------------
      1        6           0.001986500   -0.000288113   -0.000856908
      2        6           0.000547759    0.000368018    0.000516978
      3        6          -0.000049166   -0.000117106   -0.000187973
      4        6          -0.000228612    0.000392911    0.000704229
      5        6          -0.002172212   -0.000154751    0.000146301
      6        1           0.000945582   -0.000283785   -0.000654823
      7        1           0.000174304    0.000243775    0.000066969
      8        1           0.000204400   -0.000026618    0.000227587
      9        1          -0.000343752   -0.000396808   -0.000208740
     10        1          -0.000381967   -0.000053203   -0.000412866
     11        1           0.000139010    0.000611937    0.000494873
     12        1           0.000188313    0.000168828    0.000758073
     13        1           0.000147956   -0.000070184   -0.000540700
     14        1           0.000186186   -0.000413796   -0.000336580
     15        1          -0.001155298   -0.000216448   -0.000147979
     16        1          -0.000109552    0.000252867    0.000135451
     17        1          -0.000079452   -0.000017526    0.000296107
 -------------------------------------------------------------------
 Cartesian Forces:  Max     0.002172212 RMS     0.000572615
 Leave Link  716 at Thu Mar 19 18:05:25 2026, MaxMem=   536870912 cpu:         0.0
 (Enter C:\G09W\l103.exe)

 GradGradGradGradGradGradGradGradGradGradGradGradGradGradGradGradGradGrad
 Berny optimization.
 Using GEDIIS/GDIIS optimizer.
 FormGI is forming the generalized inverse of G from B-inverse, IUseBI=4.
 Internal  Forces:  Max     0.003195438 RMS     0.000887700
 Search for a local minimum.
 Step number   2 out of a maximum of   92
 All quantities printed in internal units (Hartrees-Bohrs-Radians)
 RMS Force = .88770D-03 SwitMx=.10000D-02 MixMth= 2
 Mixed Optimization -- En-DIIS/RFO-DIIS
 Update second derivatives using D2CorX and points    1    2
 DE= -1.11D-03 DEPred=-1.56D-03 R= 7.09D-01
 TightC=F SS=  1.41D+00  RLast= 1.49D-01 DXNew= 5.0454D-01 4.4645D-01
 Trust test= 7.09D-01 RLast= 1.49D-01 DXMaxT set to 4.46D-01
 ITU=  1  0
 Use linear search instead of GDIIS.
     Eigenvalues ---    0.00390   0.00390   0.00496   0.00496   0.03411
     Eigenvalues ---    0.03488   0.03488   0.04787   0.04857   0.04860
     Eigenvalues ---    0.05500   0.05500   0.05588   0.05602   0.08555
     Eigenvalues ---    0.08556   0.08595   0.12356   0.12356   0.12390
     Eigenvalues ---    0.15952   0.16000   0.16000   0.16000   0.16000
     Eigenvalues ---    0.16400   0.21912   0.21915   0.23750   0.29567
     Eigenvalues ---    0.29781   0.30330   0.33339   0.34029   0.34060
     Eigenvalues ---    0.34103   0.34103   0.34103   0.34116   0.34243
     Eigenvalues ---    0.34277   0.34277   0.34277   0.34299   0.35960
 RFO step:  Lambda=-3.52160010D-05 EMin= 3.89572602D-03
 Quartic linear search produced a step of -0.21233.
 Iteration  1 RMS(Cart)=  0.00906312 RMS(Int)=  0.00002862
 Iteration  2 RMS(Cart)=  0.00001143 RMS(Int)=  0.00002712
 Iteration  3 RMS(Cart)=  0.00000000 RMS(Int)=  0.00002712
 ITry= 1 IFail=0 DXMaxC= 3.02D-02 DCOld= 1.00D+10 DXMaxT= 4.46D-01 DXLimC= 3.00D+00 Rises=F
 Variable       Old X    -DE/DX   Delta X   Delta X   Delta X     New X
                                 (Linear)    (Quad)   (Total)
    R1        2.90494  -0.00320  -0.00676  -0.00127  -0.00803   2.89691
    R2        2.07280  -0.00061  -0.00096  -0.00041  -0.00137   2.07143
    R3        2.07245   0.00025  -0.00080   0.00141   0.00061   2.07305
    R4        2.07245   0.00025  -0.00080   0.00141   0.00061   2.07305
    R5        2.90686  -0.00248  -0.00393  -0.00251  -0.00644   2.90042
    R6        2.07618   0.00043  -0.00098   0.00201   0.00104   2.07721
    R7        2.07618   0.00043  -0.00098   0.00201   0.00104   2.07721
    R8        2.90686  -0.00248  -0.00393  -0.00251  -0.00644   2.90042
    R9        2.07757   0.00066  -0.00101   0.00258   0.00157   2.07914
   R10        2.07757   0.00066  -0.00101   0.00258   0.00157   2.07914
   R11        2.90494  -0.00320  -0.00676  -0.00127  -0.00803   2.89691
   R12        2.07618   0.00043  -0.00098   0.00201   0.00104   2.07721
   R13        2.07618   0.00043  -0.00098   0.00201   0.00104   2.07721
   R14        2.07280  -0.00061  -0.00096  -0.00041  -0.00137   2.07143
   R15        2.07245   0.00025  -0.00080   0.00141   0.00061   2.07305
   R16        2.07245   0.00025  -0.00080   0.00141   0.00061   2.07305
    A1        1.95262  -0.00143  -0.00599  -0.00135  -0.00732   1.94530
    A2        1.93929   0.00013  -0.00041   0.00130   0.00089   1.94018
    A3        1.93929   0.00013  -0.00041   0.00130   0.00089   1.94018
    A4        1.87656   0.00063   0.00208   0.00050   0.00260   1.87917
    A5        1.87656   0.00063   0.00208   0.00050   0.00260   1.87917
    A6        1.87605  -0.00002   0.00304  -0.00233   0.00071   1.87676
    A7        1.98398  -0.00218  -0.00806   0.00004  -0.00800   1.97598
    A8        1.90963   0.00051  -0.00100   0.00151   0.00050   1.91012
    A9        1.90963   0.00051  -0.00100   0.00151   0.00050   1.91012
   A10        1.90179   0.00086   0.00334   0.00051   0.00393   1.90571
   A11        1.90179   0.00086   0.00334   0.00051   0.00393   1.90571
   A12        1.85241  -0.00046   0.00403  -0.00441  -0.00033   1.85208
   A13        1.99118  -0.00247  -0.01022   0.00153  -0.00866   1.98252
   A14        1.90364   0.00080   0.00188   0.00083   0.00275   1.90639
   A15        1.90364   0.00080   0.00188   0.00083   0.00275   1.90639
   A16        1.90364   0.00080   0.00188   0.00083   0.00275   1.90639
   A17        1.90364   0.00080   0.00188   0.00083   0.00275   1.90639
   A18        1.85308  -0.00061   0.00345  -0.00539  -0.00191   1.85117
   A19        1.98398  -0.00218  -0.00806   0.00004  -0.00800   1.97598
   A20        1.90179   0.00086   0.00334   0.00051   0.00393   1.90571
   A21        1.90179   0.00086   0.00334   0.00051   0.00393   1.90571
   A22        1.90963   0.00051  -0.00100   0.00151   0.00050   1.91012
   A23        1.90963   0.00051  -0.00100   0.00151   0.00050   1.91012
   A24        1.85241  -0.00046   0.00403  -0.00441  -0.00033   1.85208
   A25        1.95262  -0.00143  -0.00599  -0.00135  -0.00732   1.94530
   A26        1.93929   0.00013  -0.00041   0.00130   0.00089   1.94018
   A27        1.93929   0.00013  -0.00041   0.00130   0.00089   1.94018
   A28        1.87656   0.00063   0.00208   0.00050   0.00260   1.87917
   A29        1.87656   0.00063   0.00208   0.00050   0.00260   1.87917
   A30        1.87605  -0.00002   0.00304  -0.00233   0.00071   1.87676
    D1       -3.14159   0.00000   0.00000   0.00000   0.00000  -3.14159
    D2       -1.01132  -0.00002  -0.00185   0.00180  -0.00008  -1.01140
    D3        1.01132   0.00002   0.00185  -0.00180   0.00008   1.01140
    D4        1.04400   0.00007   0.00164  -0.00061   0.00104   1.04504
    D5       -3.10892   0.00006  -0.00021   0.00119   0.00096  -3.10795
    D6       -1.08628   0.00009   0.00350  -0.00241   0.00112  -1.08516
    D7       -1.04399  -0.00007  -0.00164   0.00061  -0.00104  -1.04504
    D8        1.08628  -0.00009  -0.00350   0.00241  -0.00112   1.08516
    D9        3.10892  -0.00006   0.00021  -0.00119  -0.00096   3.10795
   D10        3.14159   0.00000   0.00000   0.00000   0.00000   3.14159
   D11       -1.00840  -0.00007  -0.00313   0.00276  -0.00038  -1.00877
   D12        1.00839   0.00007   0.00313  -0.00276   0.00038   1.00877
   D13        1.00698   0.00020   0.00433  -0.00234   0.00195   1.00894
   D14        3.14018   0.00012   0.00119   0.00042   0.00158  -3.14143
   D15       -1.12622   0.00027   0.00746  -0.00510   0.00233  -1.12389
   D16       -1.00698  -0.00020  -0.00433   0.00234  -0.00195  -1.00894
   D17        1.12621  -0.00027  -0.00746   0.00510  -0.00233   1.12388
   D18       -3.14018  -0.00012  -0.00119  -0.00041  -0.00158   3.14143
   D19        3.14159   0.00000   0.00000   0.00000   0.00000   3.14159
   D20        1.00698   0.00020   0.00433  -0.00234   0.00195   1.00894
   D21       -1.00698  -0.00020  -0.00433   0.00234  -0.00195  -1.00894
   D22        1.00840   0.00007   0.00313  -0.00276   0.00038   1.00877
   D23       -1.12621   0.00027   0.00746  -0.00510   0.00233  -1.12389
   D24       -3.14018  -0.00012  -0.00119  -0.00041  -0.00158   3.14143
   D25       -1.00840  -0.00007  -0.00313   0.00276  -0.00038  -1.00877
   D26        3.14018   0.00012   0.00119   0.00042   0.00158  -3.14143
   D27        1.12621  -0.00027  -0.00746   0.00510  -0.00233   1.12388
   D28       -3.14159   0.00000   0.00000   0.00000   0.00000  -3.14159
   D29       -1.04399  -0.00007  -0.00164   0.00061  -0.00104  -1.04504
   D30        1.04400   0.00007   0.00164  -0.00061   0.00104   1.04504
   D31       -1.01132  -0.00002  -0.00185   0.00180  -0.00008  -1.01140
   D32        1.08628  -0.00009  -0.00350   0.00241  -0.00112   1.08516
   D33       -3.10892   0.00006  -0.00021   0.00119   0.00096  -3.10795
   D34        1.01132   0.00002   0.00185  -0.00180   0.00008   1.01140
   D35        3.10892  -0.00006   0.00021  -0.00119  -0.00096   3.10795
   D36       -1.08628   0.00009   0.00350  -0.00241   0.00112  -1.08516
         Item               Value     Threshold  Converged?
 Maximum Force            0.003195     0.000450     NO 
 RMS     Force            0.000888     0.000300     NO 
 Maximum Displacement     0.030217     0.001800     NO 
 RMS     Displacement     0.009071     0.001200     NO 
 Predicted change in Energy=-9.988801D-05
 Lowest energy point so far.  Saving SCF results.
 GradGradGradGradGradGradGradGradGradGradGradGradGradGradGradGradGradGrad

 Leave Link  103 at Thu Mar 19 18:05:26 2026, MaxMem=   536870912 cpu:         0.0
 (Enter C:\G09W\l202.exe)
                          Input orientation:                          
 ---------------------------------------------------------------------
 Center     Atomic      Atomic             Coordinates (Angstroms)
 Number     Number       Type             X           Y           Z
 ---------------------------------------------------------------------
      1          6           0       -2.423825    0.234621    0.796194
      2          6           0       -1.366419   -0.242948   -0.205723
      3          6           0        0.063313    0.151030    0.189707
      4          6           0        1.129184   -0.322964   -0.807775
      5          6           0        2.553635    0.075032   -0.404594
      6          1           0       -3.432634   -0.061719    0.486291
[...]
 ! A28   A(15,5,16)            107.6824         -DE/DX =    0.0                 !
 ! A29   A(15,5,17)            107.6824         -DE/DX =    0.0                 !
 ! A30   A(16,5,17)            107.4921         -DE/DX =    0.0                 !
 ! D1    D(6,1,2,3)           -180.0            -DE/DX =    0.0                 !
 ! D2    D(6,1,2,9)            -57.904          -DE/DX =    0.0                 !
 ! D3    D(6,1,2,10)            57.904          -DE/DX =    0.0                 !
 ! D4    D(7,1,2,3)             59.8489         -DE/DX =    0.0                 !
 ! D5    D(7,1,2,9)           -178.0551         -DE/DX =    0.0                 !
 ! D6    D(7,1,2,10)           -62.247          -DE/DX =    0.0                 !
 ! D7    D(8,1,2,3)            -59.8489         -DE/DX =    0.0                 !
 ! D8    D(8,1,2,9)             62.247          -DE/DX =    0.0                 !
 ! D9    D(8,1,2,10)           178.0551         -DE/DX =    0.0                 !
 ! D10   D(1,2,3,4)           -180.0            -DE/DX =    0.0                 !
 ! D11   D(1,2,3,11)           -57.7406         -DE/DX =    0.0                 !
 ! D12   D(1,2,3,12)            57.7406         -DE/DX =    0.0                 !
 ! D13   D(9,2,3,4)             57.7608         -DE/DX =    0.0                 !
 ! D14   D(9,2,3,11)          -179.9798         -DE/DX =    0.0                 !
 ! D15   D(9,2,3,12)           -64.4985         -DE/DX =    0.0                 !
 ! D16   D(10,2,3,4)           -57.7609         -DE/DX =    0.0                 !
 ! D17   D(10,2,3,11)           64.4985         -DE/DX =    0.0                 !
 ! D18   D(10,2,3,12)          179.9798         -DE/DX =    0.0                 !
 ! D19   D(2,3,4,5)           -180.0            -DE/DX =    0.0                 !
 ! D20   D(2,3,4,13)            57.7609         -DE/DX =    0.0                 !
 ! D21   D(2,3,4,14)           -57.7609         -DE/DX =    0.0                 !
 ! D22   D(11,3,4,5)            57.7406         -DE/DX =    0.0                 !
 ! D23   D(11,3,4,13)          -64.4985         -DE/DX =    0.0                 !
 ! D24   D(11,3,4,14)          179.9798         -DE/DX =    0.0                 !
 ! D25   D(12,3,4,5)           -57.7406         -DE/DX =    0.0                 !
 ! D26   D(12,3,4,13)         -179.9798         -DE/DX =    0.0                 !
 ! D27   D(12,3,4,14)           64.4985         -DE/DX =    0.0                 !
 ! D28   D(3,4,5,15)          -180.0            -DE/DX =    0.0                 !
 ! D29   D(3,4,5,16)           -59.8489         -DE/DX =    0.0                 !
 ! D30   D(3,4,5,17)            59.849          -DE/DX =    0.0                 !
 ! D31   D(13,4,5,15)          -57.904          -DE/DX =    0.0                 !
 ! D32   D(13,4,5,16)           62.2471         -DE/DX =    0.0                 !
 ! D33   D(13,4,5,17)         -178.0551         -DE/DX =    0.0                 !
 ! D34   D(14,4,5,15)           57.9041         -DE/DX =    0.0                 !
 ! D35   D(14,4,5,16)          178.0551         -DE/DX =    0.0                 !
 ! D36   D(14,4,5,17)          -62.247          -DE/DX =    0.0                 !
 --------------------------------------------------------------------------------
 Lowest energy point so far.  Saving SCF results.
 GradGradGradGradGradGradGradGradGradGradGradGradGradGradGradGradGradGrad

 Largest change from initial coordinates is atom   15       0.047 Angstoms.
 Leave Link  103 at Thu Mar 19 18:05:47 2026, MaxMem=   536870912 cpu:         0.0
 (Enter C:\G09W\l202.exe)
                          Input orientation:                          
 ---------------------------------------------------------------------
 Center     Atomic      Atomic             Coordinates (Angstroms)
 Number     Number       Type             X           Y           Z
 ---------------------------------------------------------------------
      1          6           0       -2.423138    0.234521    0.795896
      2          6           0       -1.366124   -0.242779   -0.205493
      3          6           0        0.063203    0.150767    0.189285
      4          6           0        1.129036   -0.322780   -0.807438
      5          6           0        2.552883    0.074978   -0.404545
      6          1           0       -3.431992   -0.061686    0.486225
      7          1           0       -2.411746    1.327194    0.893048
      8          1           0       -2.243281   -0.187037    1.792612
      9          1           0       -1.425166   -1.335829   -0.307182
     10          1           0       -1.592390    0.167241   -1.200115
     11          1           0        0.122967    1.244810    0.291616
     12          1           0        0.290278   -0.259037    1.185011
     13          1           0        0.901759    0.087272   -1.801816
     14          1           0        1.068982   -1.415798   -0.908883
     15          1           0        3.289924   -0.277206   -1.135405
     16          1           0        2.653168    1.164801   -0.328837
     17          1           0        2.821634   -0.349431    0.570726
 ---------------------------------------------------------------------
                    Distance matrix (angstroms):
                    1          2          3          4          5
     1  C    0.000000
     2  C    1.532277   0.000000
     3  C    2.560641   1.534179   0.000000
     4  C    3.936904   2.567988   1.534179   0.000000
     5  C    5.121260   3.936904   2.560642   1.532277   0.000000
     6  H    1.096093   2.186110   3.514213   4.748127   6.052344
     7  H    1.097043   2.182873   2.829247   4.260424   5.281983
     8  H    1.097043   2.182873   2.829247   4.260424   5.281982
     9  H    2.163037   1.099357   2.161410   2.792933   4.221934
    10  H    2.163037   1.099357   2.161409   2.792933   4.221934
    11  H    2.785254   2.162738   1.100442   2.162737   2.785254
    12  H    2.785253   2.162738   1.100442   2.162738   2.785254
    13  H    4.221934   2.792933   2.161409   1.099357   2.163037
    14  H    4.221934   2.792933   2.161409   1.099357   2.163037
    15  H    6.052344   4.748127   3.514213   2.186110   1.096093
    16  H    5.281982   4.260424   2.829247   2.182873   1.097043
    17  H    5.281983   4.260424   2.829247   2.182873   1.097043
                    6          7          8          9         10
     6  H    0.000000
     7  H    1.770705   0.000000
     8  H    1.770705   1.769320   0.000000
     9  H    2.506050   3.083114   2.529461   0.000000
    10  H    2.506050   2.529460   3.083114   1.756278   0.000000
    11  H    3.792432   2.606393   3.146793   3.068383   2.515724
    12  H    3.792432   3.146793   2.606392   2.515724   3.068383
    13  H    4.902929   4.447360   4.783977   3.110262   2.566946
    14  H    4.902929   4.783977   4.447360   2.566946   3.110262
    15  H    6.918113   6.260812   6.260812   4.902929   4.902929
    16  H    6.260812   5.212748   5.504837   4.783977   4.447360
    17  H    6.260813   5.504837   5.212748   4.447360   4.783977
                   11         12         13         14         15
    11  H    0.000000
    12  H    1.757186   0.000000
    13  H    2.515724   3.068383   0.000000
    14  H    3.068383   2.515724   1.756278   0.000000
    15  H    3.792432   3.792432   2.506050   2.506050   0.000000
    16  H    2.606392   3.146793   2.529461   3.083114   1.770705
    17  H    3.146793   2.606393   3.083114   2.529460   1.770705
                   16         17
    16  H    0.000000
    17  H    1.769320   0.000000
 Stoichiometry    C5H12
 Framework group  C1[X(C5H12)]
 Deg. of freedom    45
 Full point group                 C1      NOp   1
 RotChk:  IX=0 Diff= 3.41D-09
 Largest Abelian subgroup         C1      NOp   1
 Largest concise Abelian subgroup C1      NOp   1
                         Standard orientation:                         
 ---------------------------------------------------------------------
 Center     Atomic      Atomic             Coordinates (Angstroms)
 Number     Number       Type             X           Y           Z
 ---------------------------------------------------------------------
      1          6           0       -2.560630    0.323991    0.000000
      2          6           0       -1.283994   -0.523402    0.000000
      3          6           0        0.000000    0.316279    0.000000
      4          6           0        1.283994   -0.523402    0.000000
      5          6           0        2.560630    0.323991    0.000000
      6          1           0       -3.459056   -0.303902    0.000000
      7          1           0       -2.606374    0.971129   -0.884660
      8          1           0       -2.606374    0.971130    0.884660
      9          1           0       -1.283473   -1.184807    0.878139
     10          1           0       -1.283473   -1.184807   -0.878139
     11          1           0        0.000000    0.978885   -0.878593
     12          1           0        0.000000    0.978885    0.878593
     13          1           0        1.283473   -1.184807   -0.878139
     14          1           0        1.283473   -1.184807    0.878139
     15          1           0        3.459056   -0.303902    0.000000
     16          1           0        2.606374    0.971130   -0.884660
     17          1           0        2.606374    0.971129    0.884660
 ---------------------------------------------------------------------
 Rotational constants (GHZ):     17.0223328      1.9223657      1.8248396
 Leave Link  202 at Thu Mar 19 18:05:47 2026, MaxMem=   536870912 cpu:         0.0
 (Enter C:\G09W\l601.exe)
 Copying SCF densities to generalized density rwf, IOpCl= 0 IROHF=0.

 **********************************************************************

            Population analysis using the SCF density.

 **********************************************************************

 Orbital symmetries:
       Occupied  (A) (A) (A) (A) (A) (A) (A) (A) (A) (A) (A) (A)
                 (A) (A) (A) (A) (A) (A) (A) (A) (A)
       Virtual   (A) (A) (A) (A) (A) (A) (A) (A) (A) (A) (A) (A)
                 (A) (A) (A) (A) (A) (A) (A) (A) (A) (A) (A) (A)
                 (A) (A) (A) (A) (A) (A) (A) (A) (A) (A) (A) (A)
                 (A) (A) (A) (A) (A) (A) (A) (A) (A) (A) (A) (A)
                 (A) (A) (A) (A) (A) (A) (A) (A) (A) (A) (A) (A)
                 (A) (A) (A) (A) (A) (A) (A) (A) (A) (A) (A) (A)
                 (A) (A) (A) (A) (A) (A)
 The electronic state is 1-A.
 Alpha  occ. eigenvalues --  -10.17594 -10.17594 -10.17353 -10.16997 -10.16997
 Alpha  occ. eigenvalues --   -0.79439  -0.74433  -0.67041  -0.59442  -0.56994
 Alpha  occ. eigenvalues --   -0.46921  -0.43137  -0.42657  -0.39727  -0.38994
 Alpha  occ. eigenvalues --   -0.37282  -0.34857  -0.33161  -0.32169  -0.31740
 Alpha  occ. eigenvalues --   -0.31068
 Alpha virt. eigenvalues --    0.09362   0.11117   0.12807   0.13575   0.15345
 Alpha virt. eigenvalues --    0.17483   0.17497   0.17883   0.19739   0.19909
 Alpha virt. eigenvalues --    0.19960   0.20553   0.22735   0.25589   0.27587
 Alpha virt. eigenvalues --    0.27611   0.49249   0.51475   0.51700   0.55151
 Alpha virt. eigenvalues --    0.55867   0.59264   0.60123   0.65228   0.65723
 Alpha virt. eigenvalues --    0.68591   0.72002   0.76345   0.78343   0.81333
 Alpha virt. eigenvalues --    0.85388   0.88297   0.89425   0.89936   0.91118
 Alpha virt. eigenvalues --    0.93051   0.93631   0.94621   0.95466   0.96360
 Alpha virt. eigenvalues --    0.97906   0.99168   1.01312   1.09398   1.32594
 Alpha virt. eigenvalues --    1.41767   1.42705   1.46030   1.49396   1.56465
 Alpha virt. eigenvalues --    1.70094   1.79642   1.81238   1.89946   1.91292
 Alpha virt. eigenvalues --    1.94175   1.97348   1.99353   2.00138   2.00971
 Alpha virt. eigenvalues --    2.09061   2.21279   2.22850   2.28229   2.31115
 Alpha virt. eigenvalues --    2.32566   2.39780   2.42642   2.42656   2.57514
 Alpha virt. eigenvalues --    2.57992   2.73641   2.78691   4.12075   4.21072
 Alpha virt. eigenvalues --    4.31746   4.41227   4.53995
          Condensed to atoms (all electrons):
               1          2          3          4          5          6
     1  C    5.065116   0.371589  -0.042211   0.003663  -0.000135   0.371382
     2  C    0.371589   4.949623   0.389288  -0.035951   0.003663  -0.027225
     3  C   -0.042211   0.389288   4.970504   0.389288  -0.042211   0.004108
     4  C    0.003663  -0.035951   0.389288   4.949623   0.371589  -0.000133
     5  C   -0.000135   0.003663  -0.042211   0.371589   5.065116   0.000001
     6  H    0.371382  -0.027225   0.004108  -0.000133   0.000001   0.579242
     7  H    0.377509  -0.034756  -0.004530   0.000029   0.000001  -0.031413
     8  H    0.377509  -0.034756  -0.004530   0.000029   0.000001  -0.031413
     9  H   -0.038614   0.376535  -0.040323  -0.003607   0.000026  -0.002705
    10  H   -0.038614   0.376535  -0.040323  -0.003607   0.000026  -0.002705
    11  H   -0.002942  -0.040363   0.372613  -0.040363  -0.002942  -0.000030
    12  H   -0.002942  -0.040363   0.372613  -0.040363  -0.002942  -0.000030
    13  H    0.000026  -0.003607  -0.040323   0.376535  -0.038614   0.000002
    14  H    0.000026  -0.003607  -0.040323   0.376535  -0.038614   0.000002
    15  H    0.000001  -0.000133   0.004108  -0.027225   0.371382   0.000000
    16  H    0.000001   0.000029  -0.004530  -0.034756   0.377509   0.000000
    17  H    0.000001   0.000029  -0.004530  -0.034756   0.377509   0.000000
               7          8          9         10         11         12
     1  C    0.377509   0.377509  -0.038614  -0.038614  -0.002942  -0.002942
     2  C   -0.034756  -0.034756   0.376535   0.376535  -0.040363  -0.040363
     3  C   -0.004530  -0.004530  -0.040323  -0.040323   0.372613   0.372613
     4  C    0.000029   0.000029  -0.003607  -0.003607  -0.040363  -0.040363
     5  C    0.000001   0.000001   0.000026   0.000026  -0.002942  -0.002942
     6  H   -0.031413  -0.031413  -0.002705  -0.002705  -0.000030  -0.000030
     7  H    0.579931  -0.032917   0.005272  -0.004512   0.004879  -0.000395
     8  H   -0.032917   0.579931  -0.004512   0.005272  -0.000395   0.004879
     9  H    0.005272  -0.004512   0.613379  -0.040246   0.006003  -0.005509
    10  H   -0.004512   0.005272  -0.040246   0.613379  -0.005509   0.006003
    11  H    0.004879  -0.000395   0.006003  -0.005509   0.619782  -0.041168
    12  H   -0.000395   0.004879  -0.005509   0.006003  -0.041168   0.619782
    13  H    0.000002   0.000007  -0.000474   0.005237  -0.005509   0.006003
    14  H    0.000007   0.000002   0.005237  -0.000474   0.006003  -0.005509
    15  H    0.000000   0.000000   0.000002   0.000002  -0.000030  -0.000030
    16  H   -0.000001   0.000000   0.000007   0.000002   0.004879  -0.000395
    17  H    0.000000  -0.000001   0.000002   0.000007  -0.000395   0.004879
              13         14         15         16         17
     1  C    0.000026   0.000026   0.000001   0.000001   0.000001
     2  C   -0.003607  -0.003607  -0.000133   0.000029   0.000029
     3  C   -0.040323  -0.040323   0.004108  -0.004530  -0.004530
     4  C    0.376535   0.376535  -0.027225  -0.034756  -0.034756
     5  C   -0.038614  -0.038614   0.371382   0.377509   0.377509
     6  H    0.000002   0.000002   0.000000   0.000000   0.000000
     7  H    0.000002   0.000007   0.000000  -0.000001   0.000000
     8  H    0.000007   0.000002   0.000000   0.000000  -0.000001
     9  H   -0.000474   0.005237   0.000002   0.000007   0.000002
    10  H    0.005237  -0.000474   0.000002   0.000002   0.000007
    11  H   -0.005509   0.006003  -0.000030   0.004879  -0.000395
    12  H    0.006003  -0.005509  -0.000030  -0.000395   0.004879
    13  H    0.613379  -0.040246  -0.002705  -0.004512   0.005272
    14  H   -0.040246   0.613379  -0.002705   0.005272  -0.004512
    15  H   -0.002705  -0.002705   0.579242  -0.031413  -0.031413
    16  H   -0.004512   0.005272  -0.031413   0.579931  -0.032917
    17  H    0.005272  -0.004512  -0.031413  -0.032917   0.579931
 Mulliken charges:
               1
     1  C   -0.441367
     2  C   -0.246530
     3  C   -0.238688
     4  C   -0.246530
     5  C   -0.441367
     6  H    0.140917
     7  H    0.140894
     8  H    0.140894
     9  H    0.129525
    10  H    0.129525
    11  H    0.125487
    12  H    0.125487
    13  H    0.129525
    14  H    0.129525
    15  H    0.140917
    16  H    0.140894
    17  H    0.140894
 Sum of Mulliken charges =   0.00000
 Mulliken charges with hydrogens summed into heavy atoms:
               1
     1  C   -0.018664
     2  C    0.012521
     3  C    0.012286
     4  C    0.012521
     5  C   -0.018664
 Electronic spatial extent (au):  <R**2>=            722.6894
 Charge=              0.0000 electrons
 Dipole moment (field-independent basis, Debye):
    X=              0.0000    Y=             -0.0545    Z=              0.0000  Tot=              0.0545
 Quadrupole moment (field-independent basis, Debye-Ang):
   XX=            -35.5219   YY=            -35.0338   ZZ=            -34.2563
   XY=              0.0000   XZ=              0.0000   YZ=              0.0000
 Traceless Quadrupole moment (field-independent basis, Debye-Ang):
   XX=             -0.5846   YY=             -0.0965   ZZ=              0.6811
   XY=              0.0000   XZ=              0.0000   YZ=              0.0000
 Octapole moment (field-independent basis, Debye-Ang**2):
  XXX=              0.0000  YYY=             -0.1299  ZZZ=              0.0000  XYY=              0.0000
  XXY=             -2.0663  XXZ=              0.0000  XZZ=              0.0000  YZZ=              0.4625
  YYZ=              0.0000  XYZ=              0.0000
 Hexadecapole moment (field-independent basis, Debye-Ang**3):
 XXXX=           -820.5942 YYYY=           -118.9691 ZZZZ=            -70.1266 XXXY=              0.0000
 XXXZ=              0.0000 YYYX=              0.0000 YYYZ=              0.0000 ZZZX=              0.0000
 ZZZY=              0.0000 XXYY=           -155.1370 XXZZ=           -147.2526 YYZZ=            -28.6165
 XXYZ=              0.0000 YYXZ=              0.0000 ZZXY=              0.0000
 N-N= 1.841666291896D+02 E-N=-8.244737968400D+02  KE= 1.957112466887D+02
 No NMR shielding tensors so no spin-rotation constants.
 Leave Link  601 at Thu Mar 19 18:05:47 2026, MaxMem=   536870912 cpu:         0.0
 (Enter C:\G09W\l9999.exe)
 1|1|UNPC-DESKTOP-GS7R1K3|FOpt|RB3LYP|6-31G(d)|C5H12|1172|19-Mar-2026|0
 ||#p opt B3LYP/6-31G(d)||pentane||0,1|C,-2.4231384363,0.2345207728,0.7
 958958016|C,-1.3661242634,-0.2427792487,-0.2054930713|C,0.0632030201,0
 .1507674058,0.1892852135|C,1.1290362956,-0.3227799721,-0.8074382127|C,
 2.5528830666,0.0749778964,-0.4045448649|H,-3.4319916809,-0.0616863791,
 0.4862247072|H,-2.4117463982,1.3271942896,0.8930483335|H,-2.2432806494
 ,-0.1870371976,1.7926123427|H,-1.4251656957,-1.335829438,-0.3071817312
 |H,-1.5923895358,0.1672408435,-1.2001149834|H,0.1229674281,1.244810051
 6,0.2916161163|H,0.2902776502,-0.2590371193,1.185011115|H,0.9017586678
 ,0.0872724723,-1.8018159417|H,1.0689824761,-1.4157977143,-0.9088825293
 |H,3.289924376,-0.2772063716,-1.1354046837|H,2.6531684557,1.1648012526
 ,-0.3288370594|H,2.8216342176,-0.3494305395,0.5707264464||Version=EM64
 W-G09RevD.01|State=1-A|HF=-197.771782|RMSD=9.334e-009|RMSF=5.527e-005|
 Dipole=-0.0046399,-0.0110685,-0.0177624|Quadrupole=-0.4090825,0.351329
 4,0.0577531,-0.0361248,0.110631,-0.2541969|PG=C01 [X(C5H12)]||@


 IT IS UNWORTHY OF EXCELLENT MEN TO LOSE HOURS LIKE SLAVES IN THE LABOR
 OF CALCULATION WHICH COULD BE SAFELY RELEGATED TO ANYONE ELSE
 IF A MACHINE WERE USED.
    -- G.W. VON LEIBNIZ
 Job cpu time:       0 days  0 hours  0 minutes 50.0 seconds.
 File lengths (MBytes):  RWF=      7 Int=      0 D2E=      0 Chk=      2 Scr=      1
 Normal termination of Gaussian 09 at Thu Mar 19 18:05:47 2026.
