 Entering Gaussian System, Link 0=C:\G09W\g09.exe
 Input=tert-butanol_rdkit.com
 Output=C:\workspace\delta_chem\data\raw\tert-butanol\tert-butanol_rdkit.out
 Initial command:
 C:\G09W\l1.exe ".\Gau-8556.inp" "C:\workspace\delta_chem\data\raw\tert-butanol\tert-butanol_rdkit.out" /scrdir=".\"
 Entering Link 1 = C:\G09W\l1.exe PID=     16696.
  
 Copyright (c) 1988,1990,1992,1993,1995,1998,2003,2009,2013,
            Gaussian, Inc.  All Rights Reserved.
  
 This is part of the Gaussian(R) 09 program.  It is based on
 the Gaussian(R) 03 system (copyright 2003, Gaussian, Inc.),
 the Gaussian(R) 98 system (copyright 1998, Gaussian, Inc.),
 the Gaussian(R) 94 system (copyright 1995, Gaussian, Inc.),
 the Gaussian 92(TM) system (copyright 1992, Gaussian, Inc.),
 the Gaussian 90(TM) system (copyright 1990, Gaussian, Inc.),
 the Gaussian 88(TM) system (copyright 1988, Gaussian, Inc.),
 the Gaussian 86(TM) system (copyright 1986, Carnegie Mellon
 University), and the Gaussian 82(TM) system (copyright 1983,
 Carnegie Mellon University). Gaussian is a federally registered
 trademark of Gaussian, Inc.
  
 This software contains proprietary and confidential information,
 including trade secrets, belonging to Gaussian, Inc.
  
 This software is provided under written license and may be
 used, copied, transmitted, or stored only in accord with that
 written license.
  
 The following legend is applicable only to US Government
 contracts under FAR:
  
                    RESTRICTED RIGHTS LEGEND
  
 Use, reproduction and disclosure by the US Government is
 subject to restrictions as set forth in subparagraphs (a)
 and (c) of the Commercial Computer Software - Restricted
 Rights clause in FAR 52.227-19.
  
 Gaussian, Inc.
 340 Quinnipiac St., Bldg. 40, Wallingford CT 06492
  
  
 ---------------------------------------------------------------
 Warning -- This program may not be used in any manner that
 competes with the business of Gaussian, Inc. or will provide
 assistance to any competitor of Gaussian, Inc.  The licensee
 of this program is prohibited from giving any competitor of
 Gaussian, Inc. access to this program.  By using this program,
 the user acknowledges that Gaussian, Inc. is engaged in the
 business of creating and licensing software in the field of
 computational chemistry and represents and warrants to the
 licensee that it is not a competitor of Gaussian, Inc. and that
 it will not use this program in any manner prohibited above.
 ---------------------------------------------------------------
  

 Cite this work as:
 Gaussian 09, Revision D.01,
 M. J. Frisch, G. W. Trucks, H. B. Schlegel, G. E. Scuseria, 
 M. A. Robb, J. R. Cheeseman, G. Scalmani, V. Barone, B. Mennucci, 
 G. A. Petersson, H. Nakatsuji, M. Caricato, X. Li, H. P. Hratchian, 
 A. F. Izmaylov, J. Bloino, G. Zheng, J. L. Sonnenberg, M. Hada, 
 M. Ehara, K. Toyota, R. Fukuda, J. Hasegawa, M. Ishida, T. Nakajima, 
 Y. Honda, O. Kitao, H. Nakai, T. Vreven, J. A. Montgomery, Jr., 
 J. E. Peralta, F. Ogliaro, M. Bearpark, J. J. Heyd, E. Brothers, 
 K. N. Kudin, V. N. Staroverov, T. Keith, R. Kobayashi, J. Normand, 
 K. Raghavachari, A. Rendell, J. C. Burant, S. S. Iyengar, J. Tomasi, 
 M. Cossi, N. Rega, J. M. Millam, M. Klene, J. E. Knox, J. B. Cross, 
 V. Bakken, C. Adamo, J. Jaramillo, R. Gomperts, R. E. Stratmann, 
 O. Yazyev, A. J. Austin, R. Cammi, C. Pomelli, J. W. Ochterski, 
 R. L. Martin, K. Morokuma, V. G. Zakrzewski, G. A. Voth, 
 P. Salvador, J. J. Dannenberg, S. Dapprich, A. D. Daniels, 
 O. Farkas, J. B. Foresman, J. V. Ortiz, J. Cioslowski, 
 and D. J. Fox, Gaussian, Inc., Wallingford CT, 2013.
 
 ******************************************
 Gaussian 09:  EM64W-G09RevD.01 13-Apr-2013
                19-Mar-2026 
 ******************************************
 %NProcShared=4
 Will use up to    4 processors via shared memory.
 %Mem=4GB
 %Chk=tert-butanol_rdkit.chk
 ---------------------
 #p opt B3LYP/6-31G(d)
 ---------------------
 1/14=-1,18=20,19=15,26=3,38=1/1,3;
 2/9=110,12=2,17=6,18=5,40=1/2;
 3/5=1,6=6,7=1,11=2,16=1,25=1,30=1,71=1,74=-5/1,2,3;
 4//1;
 5/5=2,38=5/2;
 6/7=2,8=2,9=2,10=2,28=1/1;
 7//1,2,3,16;
 1/14=-1,18=20,19=15,26=3/3(2);
 2/9=110/2;
 99//99;
 2/9=110/2;
 3/5=1,6=6,7=1,11=2,16=1,25=1,30=1,71=1,74=-5/1,2,3;
 4/5=5,16=3,69=1/1;
 5/5=2,38=5/2;
 7//1,2,3,16;
 1/14=-1,18=20,19=15,26=3/3(-5);
 2/9=110/2;
 6/7=2,8=2,9=2,10=2,19=2,28=1/1;
 99/9=1/99;
 Leave Link    1 at Thu Mar 19 18:26:29 2026, MaxMem=   536870912 cpu:         0.0
 (Enter C:\G09W\l101.exe)
 ------------
 tert-butanol
 ------------
 Symbolic Z-matrix:
 Charge =  0 Multiplicity = 1
 C                     1.37993  -0.21099   0.36811 
 C                    -0.00114   0.0197   -0.24373 
 C                    -0.74092   1.13927   0.48715 
 C                    -0.82036  -1.26895  -0.22214 
 O                     0.16497   0.40105  -1.60993 
 H                     1.31023  -0.52459   1.41477 
 H                     1.92969  -0.97798  -0.18922 
 H                     1.98642   0.7006    0.31969 
 H                    -1.70961   1.33901   0.01505 
 H                    -0.17538   2.07693   0.44103 
 H                    -0.91173   0.89004   1.53949 
 H                    -0.31544  -2.06174  -0.78598 
 H                    -0.98889  -1.62376   0.79985 
 H                    -1.79404  -1.12037  -0.70299 
 H                     0.68628   1.22177  -1.63116 
 
 NAtoms=     15 NQM=       15 NQMF=       0 NMMI=      0 NMMIF=      0
                NMic=       0 NMicF=      0.
                    Isotopes and Nuclear Properties:
 (Nuclear quadrupole moments (NQMom) in fm**2, nuclear magnetic moments (NMagM)
  in nuclear magnetons)

  Atom         1           2           3           4           5           6           7           8           9          10
 IAtWgt=          12          12          12          12          16           1           1           1           1           1
 AtmWgt=  12.0000000  12.0000000  12.0000000  12.0000000  15.9949146   1.0078250   1.0078250   1.0078250   1.0078250   1.0078250
 NucSpn=           0           0           0           0           0           1           1           1           1           1
 AtZEff=   0.0000000   0.0000000   0.0000000   0.0000000   0.0000000   0.0000000   0.0000000   0.0000000   0.0000000   0.0000000
 NQMom=    0.0000000   0.0000000   0.0000000   0.0000000   0.0000000   0.0000000   0.0000000   0.0000000   0.0000000   0.0000000
 NMagM=    0.0000000   0.0000000   0.0000000   0.0000000   0.0000000   2.7928460   2.7928460   2.7928460   2.7928460   2.7928460
 AtZNuc=   6.0000000   6.0000000   6.0000000   6.0000000   8.0000000   1.0000000   1.0000000   1.0000000   1.0000000   1.0000000

  Atom        11          12          13          14          15
 IAtWgt=           1           1           1           1           1
 AtmWgt=   1.0078250   1.0078250   1.0078250   1.0078250   1.0078250
 NucSpn=           1           1           1           1           1
 AtZEff=   0.0000000   0.0000000   0.0000000   0.0000000   0.0000000
 NQMom=    0.0000000   0.0000000   0.0000000   0.0000000   0.0000000
 NMagM=    2.7928460   2.7928460   2.7928460   2.7928460   2.7928460
 AtZNuc=   1.0000000   1.0000000   1.0000000   1.0000000   1.0000000
 Leave Link  101 at Thu Mar 19 18:26:29 2026, MaxMem=   536870912 cpu:         0.0
 (Enter C:\G09W\l103.exe)

 GradGradGradGradGradGradGradGradGradGradGradGradGradGradGradGradGradGrad
 Berny optimization.
 Initialization pass.
                           ----------------------------
                           !    Initial Parameters    !
                           ! (Angstroms and Degrees)  !
 --------------------------                            --------------------------
 ! Name  Definition              Value          Derivative Info.                !
 --------------------------------------------------------------------------------
 ! R1    R(1,2)                  1.528          estimate D2E/DX2                !
 ! R2    R(1,6)                  1.0949         estimate D2E/DX2                !
 ! R3    R(1,7)                  1.096          estimate D2E/DX2                !
 ! R4    R(1,8)                  1.096          estimate D2E/DX2                !
 ! R5    R(2,3)                  1.528          estimate D2E/DX2                !
 ! R6    R(2,4)                  1.5272         estimate D2E/DX2                !
 ! R7    R(2,5)                  1.4281         estimate D2E/DX2                !
 ! R8    R(3,9)                  1.096          estimate D2E/DX2                !
 ! R9    R(3,10)                 1.096          estimate D2E/DX2                !
 ! R10   R(3,11)                 1.0949         estimate D2E/DX2                !
 ! R11   R(4,12)                 1.0961         estimate D2E/DX2                !
 ! R12   R(4,13)                 1.0949         estimate D2E/DX2                !
 ! R13   R(4,14)                 1.0961         estimate D2E/DX2                !
 ! R14   R(5,15)                 0.9725         estimate D2E/DX2                !
 ! A1    A(2,1,6)              111.6225         estimate D2E/DX2                !
 ! A2    A(2,1,7)              110.819          estimate D2E/DX2                !
 ! A3    A(2,1,8)              110.9098         estimate D2E/DX2                !
 ! A4    A(6,1,7)              108.5191         estimate D2E/DX2                !
 ! A5    A(6,1,8)              108.4029         estimate D2E/DX2                !
 ! A6    A(7,1,8)              106.3816         estimate D2E/DX2                !
 ! A7    A(1,2,3)              110.8957         estimate D2E/DX2                !
 ! A8    A(1,2,4)              110.5965         estimate D2E/DX2                !
 ! A9    A(1,2,5)              108.5561         estimate D2E/DX2                !
 ! A10   A(3,2,4)              110.5965         estimate D2E/DX2                !
 ! A11   A(3,2,5)              108.5562         estimate D2E/DX2                !
 ! A12   A(4,2,5)              107.5326         estimate D2E/DX2                !
 ! A13   A(2,3,9)              110.819          estimate D2E/DX2                !
 ! A14   A(2,3,10)             110.9097         estimate D2E/DX2                !
 ! A15   A(2,3,11)             111.6225         estimate D2E/DX2                !
 ! A16   A(9,3,10)             106.3817         estimate D2E/DX2                !
 ! A17   A(9,3,11)             108.5192         estimate D2E/DX2                !
 ! A18   A(10,3,11)            108.4029         estimate D2E/DX2                !
 ! A19   A(2,4,12)             110.8516         estimate D2E/DX2                !
 ! A20   A(2,4,13)             111.6672         estimate D2E/DX2                !
 ! A21   A(2,4,14)             110.8516         estimate D2E/DX2                !
 ! A22   A(12,4,13)            108.463          estimate D2E/DX2                !
 ! A23   A(12,4,14)            106.3557         estimate D2E/DX2                !
 ! A24   A(13,4,14)            108.4631         estimate D2E/DX2                !
 ! A25   A(2,5,15)             107.9741         estimate D2E/DX2                !
 ! D1    D(6,1,2,3)             61.8572         estimate D2E/DX2                !
 ! D2    D(6,1,2,4)            -61.2178         estimate D2E/DX2                !
 ! D3    D(6,1,2,5)           -178.968          estimate D2E/DX2                !
 ! D4    D(7,1,2,3)           -177.0616         estimate D2E/DX2                !
 ! D5    D(7,1,2,4)             59.8634         estimate D2E/DX2                !
 ! D6    D(7,1,2,5)            -57.8869         estimate D2E/DX2                !
 ! D7    D(8,1,2,3)            -59.1387         estimate D2E/DX2                !
 ! D8    D(8,1,2,4)            177.7863         estimate D2E/DX2                !
 ! D9    D(8,1,2,5)             60.036          estimate D2E/DX2                !
 ! D10   D(1,2,3,9)            177.0616         estimate D2E/DX2                !
 ! D11   D(1,2,3,10)            59.1387         estimate D2E/DX2                !
 ! D12   D(1,2,3,11)           -61.8571         estimate D2E/DX2                !
 ! D13   D(4,2,3,9)            -59.8634         estimate D2E/DX2                !
 ! D14   D(4,2,3,10)          -177.7863         estimate D2E/DX2                !
 ! D15   D(4,2,3,11)            61.2178         estimate D2E/DX2                !
 ! D16   D(5,2,3,9)             57.8869         estimate D2E/DX2                !
 ! D17   D(5,2,3,10)           -60.036          estimate D2E/DX2                !
 ! D18   D(5,2,3,11)           178.9682         estimate D2E/DX2                !
 ! D19   D(1,2,4,12)           -59.4384         estimate D2E/DX2                !
 ! D20   D(1,2,4,13)            61.6243         estimate D2E/DX2                !
 ! D21   D(1,2,4,14)          -177.3128         estimate D2E/DX2                !
 ! D22   D(3,2,4,12)           177.3132         estimate D2E/DX2                !
 ! D23   D(3,2,4,13)           -61.6241         estimate D2E/DX2                !
 ! D24   D(3,2,4,14)            59.4388         estimate D2E/DX2                !
 ! D25   D(5,2,4,12)            58.9373         estimate D2E/DX2                !
 ! D26   D(5,2,4,13)          -179.9999         estimate D2E/DX2                !
 ! D27   D(5,2,4,14)           -58.9371         estimate D2E/DX2                !
 ! D28   D(1,2,5,15)           -60.3175         estimate D2E/DX2                !
 ! D29   D(3,2,5,15)            60.3159         estimate D2E/DX2                !
 ! D30   D(4,2,5,15)           179.9992         estimate D2E/DX2                !
 --------------------------------------------------------------------------------
 Trust Radius=3.00D-01 FncErr=1.00D-07 GrdErr=1.00D-06
 Number of steps in this run=     79 maximum allowed number of steps=    100.
 GradGradGradGradGradGradGradGradGradGradGradGradGradGradGradGradGradGrad

 Leave Link  103 at Thu Mar 19 18:26:30 2026, MaxMem=   536870912 cpu:         0.0
 (Enter C:\G09W\l202.exe)
                          Input orientation:                          
 ---------------------------------------------------------------------
 Center     Atomic      Atomic             Coordinates (Angstroms)
 Number     Number       Type             X           Y           Z
 ---------------------------------------------------------------------
      1          6           0        1.379925   -0.210989    0.368105
      2          6           0       -0.001139    0.019699   -0.243729
      3          6           0       -0.740922    1.139267    0.487150
      4          6           0       -0.820359   -1.268954   -0.222138
      5          8           0        0.164969    0.401053   -1.609925
      6          1           0        1.310231   -0.524590    1.414766
      7          1           0        1.929693   -0.977983   -0.189224
      8          1           0        1.986424    0.700602    0.319691
      9          1           0       -1.709614    1.339014    0.015054
     10          1           0       -0.175379    2.076932    0.441034
     11          1           0       -0.911734    0.890044    1.539488
     12          1           0       -0.315444   -2.061735   -0.785976
     13          1           0       -0.988885   -1.623757    0.799851
     14          1           0       -1.794044   -1.120372   -0.702987
     15          1           0        0.686278    1.221769   -1.631159
 ---------------------------------------------------------------------
                    Distance matrix (angstroms):
                    1          2          3          4          5
     1  C    0.000000
     2  C    1.528037   0.000000
     3  C    2.517013   1.528036   0.000000
     4  C    2.511758   1.527159   2.511758   0.000000
     5  O    2.400691   1.428116   2.400692   2.384481   0.000000
     6  H    1.094853   2.183242   2.799307   2.788000   3.364104
     7  H    1.095965   2.174041   3.474538   2.765598   2.652241
     8  H    1.095985   2.175196   2.767469   3.471421   2.670364
     9  H    3.474537   2.174039   1.095964   2.765598   2.652242
    10  H    2.767467   2.175194   1.095984   3.471419   2.670363
    11  H    2.799306   2.183242   1.094853   2.788001   3.364105
    12  H    2.762506   2.173750   3.471065   1.096063   2.641025
    13  H    2.791698   2.183037   2.791696   1.094873   3.352351
    14  H    3.471065   2.173750   2.762510   1.096063   2.641023
    15  H    2.555582   1.960224   2.555570   3.234037   0.972517
                    6          7          8          9         10
     6  H    0.000000
     7  H    1.778224   0.000000
     8  H    1.776942   1.754953   0.000000
     9  H    3.814666   4.319116   3.763120   0.000000
    10  H    3.150096   3.763118   2.565619   1.754953   0.000000
    11  H    2.637020   3.814666   3.150097   1.778225   1.776942
    12  H    3.138296   2.563449   3.761861   3.761709   4.318997
    13  H    2.621493   3.148554   3.806003   3.148550   3.806001
    14  H    3.804781   3.761708   4.318999   2.563453   3.761863
    15  H    3.566055   2.909324   2.401627   2.909306   2.401612
                   11         12         13         14         15
    11  H    0.000000
    12  H    3.804779   0.000000
    13  H    2.621490   1.777694   0.000000
    14  H    3.138302   1.754796   1.777695   0.000000
    15  H    3.566046   3.535418   4.100366   3.535410   0.000000
 Stoichiometry    C4H10O
 Framework group  C1[X(C4H10O)]
 Deg. of freedom    39
 Full point group                 C1      NOp   1
 Largest Abelian subgroup         C1      NOp   1
 Largest concise Abelian subgroup C1      NOp   1
                         Standard orientation:                         
 ---------------------------------------------------------------------
 Center     Atomic      Atomic             Coordinates (Angstroms)
 Number     Number       Type             X           Y           Z
 ---------------------------------------------------------------------
      1          6           0        0.596179    1.258516   -0.595494
      2          6           0       -0.013297    0.000000    0.020600
      3          6           0        0.596214   -1.258497   -0.595498
      4          6           0       -1.531068   -0.000021   -0.148471
      5          8           0        0.263514    0.000002    1.421631
      6          1           0        0.397152    1.318519   -1.670431
      7          1           0        0.196277    2.159561   -0.116604
      8          1           0        1.681177    1.282835   -0.442616
      9          1           0        0.196338   -2.159554   -0.116611
     10          1           0        1.681212   -1.282784   -0.442620
     11          1           0        0.397190   -1.318501   -1.670436
     12          1           0       -1.977334    0.877372    0.333590
     13          1           0       -1.820178   -0.000026   -1.204483
     14          1           0       -1.977311   -0.877424    0.333593
     15          1           0        1.229194    0.000003    1.536743
 ---------------------------------------------------------------------
 Rotational constants (GHZ):      4.7300180      4.6937642      4.4964206
 Leave Link  202 at Thu Mar 19 18:26:30 2026, MaxMem=   536870912 cpu:         0.0
 (Enter C:\G09W\l301.exe)
 Standard basis: 6-31G(d) (6D, 7F)
 Ernie: Thresh=  0.10000D-02 Tol=  0.10000D-05 Strict=F.
 There are    95 symmetry adapted cartesian basis functions of A   symmetry.
 There are    95 symmetry adapted basis functions of A   symmetry.
    95 basis functions,   180 primitive gaussians,    95 cartesian basis functions
    21 alpha electrons       21 beta electrons
       nuclear repulsion energy       199.4348247661 Hartrees.
 IExCor=  402 DFT=T Ex+Corr=B3LYP ExCW=0 ScaHFX=  0.200000
 ScaDFX=  0.800000  0.720000  1.000000  0.810000 ScalE2=  1.000000  1.000000
 IRadAn=      0 IRanWt=     -1 IRanGd=            0 ICorTp=0 IEmpDi=  4
 NAtoms=   15 NActive=   15 NUniq=   15 SFac= 1.00D+00 NAtFMM=   60 NAOKFM=F Big=F
 Integral buffers will be    131072 words long.
 Raffenetti 2 integral format.
 Two-electron integral symmetry is turned on.
 Leave Link  301 at Thu Mar 19 18:26:30 2026, MaxMem=   536870912 cpu:         0.0
 (Enter C:\G09W\l302.exe)
 NPDir=0 NMtPBC=     1 NCelOv=     1 NCel=       1 NClECP=     1 NCelD=      1
         NCelK=      1 NCelE2=     1 NClLst=     1 CellRange=     0.0.
 One-electron integrals computed using PRISM.
 NBasis=    95 RedAO= T EigKep=  3.40D-03  NBF=    95
 NBsUse=    95 1.00D-06 EigRej= -1.00D+00 NBFU=    95
 Precomputing XC quadrature grid using
 IXCGrd= 4 IRadAn=           0 IRanWt=          -1 IRanGd=           0 AccXCQ= 0.00D+00.
 Generated NRdTot=       0 NPtTot=           0 NUsed=           0 NTot=          32
 NSgBfM=    95    95    95    95    95 MxSgAt=    15 MxSgA2=    15.
 Leave Link  302 at Thu Mar 19 18:26:31 2026, MaxMem=   536870912 cpu:         1.0
 (Enter C:\G09W\l303.exe)
 DipDrv:  MaxL=1.
 Leave Link  303 at Thu Mar 19 18:26:31 2026, MaxMem=   536870912 cpu:         0.0
 (Enter C:\G09W\l401.exe)
 ExpMin= 1.61D-01 ExpMax= 5.48D+03 ExpMxC= 8.25D+02 IAcc=1 IRadAn=         1 AccDes= 0.00D+00
 Harris functional with IExCor=  402 and IRadAn=       1 diagonalized for initial guess.
 HarFok:  IExCor=  402 AccDes= 0.00D+00 IRadAn=         1 IDoV= 1 UseB2=F ITyADJ=14
 ICtDFT=  3500011 ScaDFX=  1.000000  1.000000  1.000000  1.000000
 FoFCou: FMM=F IPFlag=           0 FMFlag=      100000 FMFlg1=           0
         NFxFlg=           0 DoJE=T BraDBF=F KetDBF=T FulRan=T
         wScrn=  0.000000 ICntrl=     500 IOpCl=  0 I1Cent=   200000004 NGrid=           0
         NMat0=    1 NMatS0=      1 NMatT0=    0 NMatD0=    1 NMtDS0=    0 NMtDT0=    0
 Petite list used in FoFCou.
 Harris En= -233.740698925873    
 JPrj=0 DoOrth=F DoCkMO=F.
 Leave Link  401 at Thu Mar 19 18:26:31 2026, MaxMem=   536870912 cpu:         0.0
 (Enter C:\G09W\l502.exe)
 Closed shell SCF:
 Using DIIS extrapolation, IDIIS=  1040.
 Integral symmetry usage will be decided dynamically.
 Keep R1 ints in memory in canonical form, NReq=11361312.
 IVT=       46930 IEndB=       46930 NGot=   536870912 MDV=   526424903
 LenX=   526424903 LenY=   526415437
 Requested convergence on RMS density matrix=1.00D-08 within 128 cycles.
 Requested convergence on MAX density matrix=1.00D-06.
 Requested convergence on             energy=1.00D-06.
 No special actions if energy rises.
 FoFCou: FMM=F IPFlag=           0 FMFlag=           0 FMFlg1=           0
         NFxFlg=           0 DoJE=F BraDBF=F KetDBF=F FulRan=T
         wScrn=  0.000000 ICntrl=     600 IOpCl=  0 I1Cent=           0 NGrid=           0
         NMat0=    1 NMatS0=   4560 NMatT0=    0 NMatD0=    1 NMtDS0=    0 NMtDT0=    0
 Symmetry not used in FoFCou.
 Integral accuracy reduced to 1.0D-05 until final iterations.

 Cycle   1  Pass 0  IDiag  1:
 E= -233.436746745693    
 DIIS: error= 5.42D-02 at cycle   1 NSaved=   1.
 NSaved= 1 IEnMin= 1 EnMin= -233.436746745693     IErMin= 1 ErrMin= 5.42D-02
 ErrMax= 5.42D-02  0.00D+00 EMaxC= 1.00D-01 BMatC= 2.33D-01 BMatP= 2.33D-01
 IDIUse=3 WtCom= 4.58D-01 WtEn= 5.42D-01
 Coeff-Com:  0.100D+01
 Coeff-En:   0.100D+01
 Coeff:      0.100D+01
 Gap=     0.231 Goal=   None    Shift=    0.000
 GapD=    0.231 DampG=1.000 DampE=0.500 DampFc=0.5000 IDamp=-1.
 Damping current iteration by 5.00D-01
 RMSDP=1.10D-02 MaxDP=1.38D-01              OVMax= 1.82D-01

 Cycle   2  Pass 0  IDiag  1:
 E= -233.539552152629     Delta-E=       -0.102805406935 Rises=F Damp=T
 DIIS: error= 7.59D-03 at cycle   2 NSaved=   2.
 NSaved= 2 IEnMin= 2 EnMin= -233.539552152629     IErMin= 2 ErrMin= 7.59D-03
 ErrMax= 7.59D-03  0.00D+00 EMaxC= 1.00D-01 BMatC= 8.96D-03 BMatP= 2.33D-01
 IDIUse=3 WtCom= 9.24D-01 WtEn= 7.59D-02
 Coeff-Com:  0.920D-01 0.908D+00
 Coeff-En:   0.144D+00 0.856D+00
 Coeff:      0.960D-01 0.904D+00
 Gap=     0.329 Goal=   None    Shift=    0.000
 RMSDP=1.74D-03 MaxDP=1.86D-02 DE=-1.03D-01 OVMax= 1.04D-01

 Cycle   3  Pass 0  IDiag  1:
 E= -233.668383996565     Delta-E=       -0.128831843937 Rises=F Damp=F
 DIIS: error= 4.44D-03 at cycle   3 NSaved=   3.
 NSaved= 3 IEnMin= 3 EnMin= -233.668383996565     IErMin= 3 ErrMin= 4.44D-03
 ErrMax= 4.44D-03  0.00D+00 EMaxC= 1.00D-01 BMatC= 2.04D-03 BMatP= 8.96D-03
 IDIUse=3 WtCom= 9.56D-01 WtEn= 4.44D-02
 Coeff-Com:  0.182D-01 0.282D+00 0.700D+00
 Coeff-En:   0.000D+00 0.000D+00 0.100D+01
 Coeff:      0.174D-01 0.269D+00 0.713D+00
 Gap=     0.318 Goal=   None    Shift=    0.000
 RMSDP=6.94D-04 MaxDP=1.39D-02 DE=-1.29D-01 OVMax= 1.47D-02

 Cycle   4  Pass 0  IDiag  1:
 E= -233.669141663448     Delta-E=       -0.000757666883 Rises=F Damp=F
 DIIS: error= 2.97D-03 at cycle   4 NSaved=   4.
 NSaved= 4 IEnMin= 4 EnMin= -233.669141663448     IErMin= 4 ErrMin= 2.97D-03
 ErrMax= 2.97D-03  0.00D+00 EMaxC= 1.00D-01 BMatC= 1.10D-03 BMatP= 2.04D-03
 IDIUse=3 WtCom= 9.70D-01 WtEn= 2.97D-02
 Coeff-Com:  0.152D-03 0.294D-01 0.423D+00 0.548D+00
 Coeff-En:   0.000D+00 0.000D+00 0.362D+00 0.638D+00
 Coeff:      0.147D-03 0.285D-01 0.421D+00 0.551D+00
 Gap=     0.324 Goal=   None    Shift=    0.000
 RMSDP=3.08D-04 MaxDP=6.38D-03 DE=-7.58D-04 OVMax= 6.70D-03

 Cycle   5  Pass 0  IDiag  1:
 E= -233.669987016990     Delta-E=       -0.000845353542 Rises=F Damp=F
 DIIS: error= 4.13D-04 at cycle   5 NSaved=   5.
 NSaved= 5 IEnMin= 5 EnMin= -233.669987016990     IErMin= 5 ErrMin= 4.13D-04
 ErrMax= 4.13D-04  0.00D+00 EMaxC= 1.00D-01 BMatC= 1.40D-05 BMatP= 1.10D-03
 IDIUse=3 WtCom= 9.96D-01 WtEn= 4.13D-03
 Coeff-Com: -0.137D-03 0.242D-02 0.142D+00 0.215D+00 0.640D+00
 Coeff-En:   0.000D+00 0.000D+00 0.000D+00 0.000D+00 0.100D+01
 Coeff:     -0.137D-03 0.241D-02 0.141D+00 0.215D+00 0.642D+00
 Gap=     0.323 Goal=   None    Shift=    0.000
 RMSDP=5.21D-05 MaxDP=9.97D-04 DE=-8.45D-04 OVMax= 8.48D-04

 Cycle   6  Pass 0  IDiag  1:
 E= -233.669997310227     Delta-E=       -0.000010293237 Rises=F Damp=F
 DIIS: error= 1.33D-04 at cycle   6 NSaved=   6.
 NSaved= 6 IEnMin= 6 EnMin= -233.669997310227     IErMin= 6 ErrMin= 1.33D-04
 ErrMax= 1.33D-04  0.00D+00 EMaxC= 1.00D-01 BMatC= 2.38D-06 BMatP= 1.40D-05
 IDIUse=3 WtCom= 9.99D-01 WtEn= 1.33D-03
 Coeff-Com:  0.720D-04-0.132D-02 0.424D-01 0.709D-01 0.343D+00 0.545D+00
 Coeff-En:   0.000D+00 0.000D+00 0.000D+00 0.000D+00 0.909D-01 0.909D+00
 Coeff:      0.719D-04-0.132D-02 0.423D-01 0.708D-01 0.343D+00 0.545D+00
 Gap=     0.323 Goal=   None    Shift=    0.000
 RMSDP=1.46D-05 MaxDP=3.69D-04 DE=-1.03D-05 OVMax= 2.89D-04

 Cycle   7  Pass 0  IDiag  1:
 E= -233.669999415720     Delta-E=       -0.000002105493 Rises=F Damp=F
 DIIS: error= 7.26D-06 at cycle   7 NSaved=   7.
 NSaved= 7 IEnMin= 7 EnMin= -233.669999415720     IErMin= 7 ErrMin= 7.26D-06
 ErrMax= 7.26D-06  0.00D+00 EMaxC= 1.00D-01 BMatC= 7.23D-09 BMatP= 2.38D-06
 IDIUse=1 WtCom= 1.00D+00 WtEn= 0.00D+00
 Coeff-Com:  0.617D-04-0.286D-03 0.279D-02 0.452D-02 0.290D-01 0.791D-01
 Coeff-Com:  0.885D+00
 Coeff:      0.617D-04-0.286D-03 0.279D-02 0.452D-02 0.290D-01 0.791D-01
 Coeff:      0.885D+00
 Gap=     0.323 Goal=   None    Shift=    0.000
 RMSDP=1.70D-06 MaxDP=1.94D-05 DE=-2.11D-06 OVMax= 2.76D-05

 Initial convergence to 1.0D-05 achieved.  Increase integral accuracy.
 Cycle   8  Pass 1  IDiag  1:
 E= -233.670065542688     Delta-E=       -0.000066126967 Rises=F Damp=F
 DIIS: error= 1.22D-05 at cycle   1 NSaved=   1.
 NSaved= 1 IEnMin= 1 EnMin= -233.670065542688     IErMin= 1 ErrMin= 1.22D-05
 ErrMax= 1.22D-05  0.00D+00 EMaxC= 1.00D-01 BMatC= 2.75D-08 BMatP= 2.75D-08
 IDIUse=1 WtCom= 1.00D+00 WtEn= 0.00D+00
 Coeff-Com:  0.100D+01
 Coeff:      0.100D+01
 Gap=     0.323 Goal=   None    Shift=    0.000
 RMSDP=1.70D-06 MaxDP=1.94D-05 DE=-6.61D-05 OVMax= 5.59D-05

 Cycle   9  Pass 1  IDiag  1:
 E= -233.670065576948     Delta-E=       -0.000000034260 Rises=F Damp=F
 DIIS: error= 6.01D-06 at cycle   2 NSaved=   2.
 NSaved= 2 IEnMin= 2 EnMin= -233.670065576948     IErMin= 2 ErrMin= 6.01D-06
 ErrMax= 6.01D-06  0.00D+00 EMaxC= 1.00D-01 BMatC= 3.35D-09 BMatP= 2.75D-08
 IDIUse=1 WtCom= 1.00D+00 WtEn= 0.00D+00
 Coeff-Com:  0.132D+00 0.868D+00
 Coeff:      0.132D+00 0.868D+00
 Gap=     0.323 Goal=   None    Shift=    0.000
 RMSDP=1.10D-06 MaxDP=2.50D-05 DE=-3.43D-08 OVMax= 2.27D-05

 Cycle  10  Pass 1  IDiag  1:
 E= -233.670065575970     Delta-E=        0.000000000977 Rises=F Damp=F
 DIIS: error= 7.68D-06 at cycle   3 NSaved=   3.
 NSaved= 3 IEnMin= 2 EnMin= -233.670065576948     IErMin= 2 ErrMin= 6.01D-06
 ErrMax= 7.68D-06  0.00D+00 EMaxC= 1.00D-01 BMatC= 4.89D-09 BMatP= 3.35D-09
 IDIUse=1 WtCom= 1.00D+00 WtEn= 0.00D+00
 Coeff-Com: -0.231D-01 0.555D+00 0.468D+00
 Coeff:     -0.231D-01 0.555D+00 0.468D+00
 Gap=     0.323 Goal=   None    Shift=    0.000
 RMSDP=6.18D-07 MaxDP=1.47D-05 DE= 9.77D-10 OVMax= 1.40D-05

 Cycle  11  Pass 1  IDiag  1:
 E= -233.670065579515     Delta-E=       -0.000000003545 Rises=F Damp=F
 DIIS: error= 3.22D-07 at cycle   4 NSaved=   4.
 NSaved= 4 IEnMin= 4 EnMin= -233.670065579515     IErMin= 4 ErrMin= 3.22D-07
 ErrMax= 3.22D-07  0.00D+00 EMaxC= 1.00D-01 BMatC= 1.16D-11 BMatP= 3.35D-09
 IDIUse=1 WtCom= 1.00D+00 WtEn= 0.00D+00
 Coeff-Com: -0.865D-02 0.163D+00 0.145D+00 0.701D+00
 Coeff:     -0.865D-02 0.163D+00 0.145D+00 0.701D+00
 Gap=     0.323 Goal=   None    Shift=    0.000
 RMSDP=5.17D-08 MaxDP=1.06D-06 DE=-3.54D-09 OVMax= 1.01D-06

 Cycle  12  Pass 1  IDiag  1:
 E= -233.670065579521     Delta-E=       -0.000000000005 Rises=F Damp=F
 DIIS: error= 1.66D-07 at cycle   5 NSaved=   5.
 NSaved= 5 IEnMin= 5 EnMin= -233.670065579521     IErMin= 5 ErrMin= 1.66D-07
 ErrMax= 1.66D-07  0.00D+00 EMaxC= 1.00D-01 BMatC= 3.11D-12 BMatP= 1.16D-11
 IDIUse=1 WtCom= 1.00D+00 WtEn= 0.00D+00
 Coeff-Com: -0.181D-02 0.229D-01 0.228D-01 0.353D+00 0.603D+00
 Coeff:     -0.181D-02 0.229D-01 0.228D-01 0.353D+00 0.603D+00
 Gap=     0.323 Goal=   None    Shift=    0.000
 RMSDP=1.99D-08 MaxDP=4.33D-07 DE=-5.46D-12 OVMax= 3.70D-07

 Cycle  13  Pass 1  IDiag  1:
 E= -233.670065579530     Delta-E=       -0.000000000009 Rises=F Damp=F
 DIIS: error= 3.08D-08 at cycle   6 NSaved=   6.
 NSaved= 6 IEnMin= 6 EnMin= -233.670065579530     IErMin= 6 ErrMin= 3.08D-08
 ErrMax= 3.08D-08  0.00D+00 EMaxC= 1.00D-01 BMatC= 6.09D-14 BMatP= 3.11D-12
 IDIUse=1 WtCom= 1.00D+00 WtEn= 0.00D+00
 Coeff-Com: -0.391D-04-0.304D-02-0.207D-02 0.655D-01 0.188D+00 0.752D+00
 Coeff:     -0.391D-04-0.304D-02-0.207D-02 0.655D-01 0.188D+00 0.752D+00
 Gap=     0.323 Goal=   None    Shift=    0.000
 RMSDP=3.81D-09 MaxDP=3.99D-08 DE=-9.27D-12 OVMax= 5.54D-08

 SCF Done:  E(RB3LYP) =  -233.670065580     A.U. after   13 cycles
            NFock= 13  Conv=0.38D-08     -V/T= 2.0093
 KE= 2.315141387019D+02 PE=-9.423210846596D+02 EE= 2.777020556121D+02
 Leave Link  502 at Thu Mar 19 18:26:40 2026, MaxMem=   536870912 cpu:         9.0
 (Enter C:\G09W\l601.exe)
 Copying SCF densities to generalized density rwf, IOpCl= 0 IROHF=0.

 **********************************************************************

            Population analysis using the SCF density.

 **********************************************************************

 Orbital symmetries:
       Occupied  (A) (A) (A) (A) (A) (A) (A) (A) (A) (A) (A) (A)
                 (A) (A) (A) (A) (A) (A) (A) (A) (A)
       Virtual   (A) (A) (A) (A) (A) (A) (A) (A) (A) (A) (A) (A)
                 (A) (A) (A) (A) (A) (A) (A) (A) (A) (A) (A) (A)
                 (A) (A) (A) (A) (A) (A) (A) (A) (A) (A) (A) (A)
                 (A) (A) (A) (A) (A) (A) (A) (A) (A) (A) (A) (A)
                 (A) (A) (A) (A) (A) (A) (A) (A) (A) (A) (A) (A)
                 (A) (A) (A) (A) (A) (A) (A) (A) (A) (A) (A) (A)
                 (A) (A)
 The electronic state is 1-A.
 Alpha  occ. eigenvalues --  -19.13235 -10.23740 -10.17166 -10.17165 -10.16952
 Alpha  occ. eigenvalues --   -1.01044  -0.78324  -0.68818  -0.68698  -0.56563
 Alpha  occ. eigenvalues --   -0.48468  -0.44853  -0.44265  -0.40581  -0.39638
 Alpha  occ. eigenvalues --   -0.38016  -0.36104  -0.35000  -0.34445  -0.31034
 Alpha  occ. eigenvalues --   -0.25807
 Alpha virt. eigenvalues --    0.06528   0.11540   0.12838   0.15227   0.15906
 Alpha virt. eigenvalues --    0.16175   0.16836   0.19711   0.20089   0.22003
 Alpha virt. eigenvalues --    0.22372   0.25257   0.25904   0.25997   0.50536
 Alpha virt. eigenvalues --    0.50690   0.55888   0.56694   0.57888   0.61462
 Alpha virt. eigenvalues --    0.65428   0.69613   0.70472   0.74049   0.74240
 Alpha virt. eigenvalues --    0.84041   0.85828   0.88319   0.88831   0.90131
 Alpha virt. eigenvalues --    0.90368   0.91582   0.93388   0.93696   0.96403
 Alpha virt. eigenvalues --    0.97838   0.98380   1.03702   1.06481   1.18270
 Alpha virt. eigenvalues --    1.36351   1.39868   1.42280   1.44175   1.58177
 Alpha virt. eigenvalues --    1.73132   1.74588   1.75476   1.76840   1.84211
 Alpha virt. eigenvalues --    1.86638   1.90921   1.92795   2.09154   2.10183
 Alpha virt. eigenvalues --    2.15330   2.21849   2.22265   2.22335   2.26418
 Alpha virt. eigenvalues --    2.26874   2.28078   2.36087   2.42191   2.61733
 Alpha virt. eigenvalues --    2.64814   2.72838   2.72919   2.90680   3.77806
 Alpha virt. eigenvalues --    4.18814   4.30547   4.31056   4.63078
          Condensed to atoms (all electrons):
               1          2          3          4          5          6
     1  C    5.213494   0.380958  -0.077405  -0.070348  -0.056623   0.343188
     2  C    0.380958   4.531322   0.380958   0.394069   0.248511  -0.022962
     3  C   -0.077405   0.380958   5.213493  -0.070348  -0.056622   0.000575
     4  C   -0.070348   0.394069  -0.070348   5.153578  -0.057035  -0.001863
     5  O   -0.056623   0.248511  -0.056622  -0.057035   8.314910   0.004072
     6  H    0.343188  -0.022962   0.000575  -0.001863   0.004072   0.591097
     7  H    0.364618  -0.025367   0.006334  -0.006688   0.001719  -0.026630
     8  H    0.358368  -0.026325  -0.007111   0.006057  -0.002016  -0.027600
     9  H    0.006334  -0.025367   0.364618  -0.006688   0.001719  -0.000143
    10  H   -0.007111  -0.026325   0.358368   0.006057  -0.002016   0.000167
    11  H    0.000575  -0.022962   0.343189  -0.001863   0.004072   0.000159
    12  H   -0.006685  -0.024127   0.006124   0.362895   0.000990   0.000297
    13  H   -0.002107  -0.026366  -0.002107   0.362622   0.003059   0.001549
    14  H    0.006124  -0.024127  -0.006685   0.362895   0.000991  -0.000152
    15  H   -0.005955  -0.021693  -0.005955   0.008588   0.227105  -0.000116
               7          8          9         10         11         12
     1  C    0.364618   0.358368   0.006334  -0.007111   0.000575  -0.006685
     2  C   -0.025367  -0.026325  -0.025367  -0.026325  -0.022962  -0.024127
     3  C    0.006334  -0.007111   0.364618   0.358368   0.343189   0.006124
     4  C   -0.006688   0.006057  -0.006688   0.006057  -0.001863   0.362895
     5  O    0.001719  -0.002016   0.001719  -0.002016   0.004072   0.000990
     6  H   -0.026630  -0.027600  -0.000143   0.000167   0.000159   0.000297
     7  H    0.562708  -0.033128  -0.000198  -0.000087  -0.000143   0.004343
     8  H   -0.033128   0.595822  -0.000087   0.004456   0.000167  -0.000067
     9  H   -0.000198  -0.000087   0.562707  -0.033128  -0.026629  -0.000067
    10  H   -0.000087   0.004456  -0.033128   0.595822  -0.027600  -0.000210
    11  H   -0.000143   0.000167  -0.026629  -0.027600   0.591096  -0.000152
    12  H    0.004343  -0.000067  -0.000067  -0.000210  -0.000152   0.564239
    13  H    0.000127  -0.000038   0.000127  -0.000038   0.001549  -0.028481
    14  H   -0.000067  -0.000210   0.004343  -0.000067   0.000297  -0.030310
    15  H   -0.000590   0.005594  -0.000590   0.005594  -0.000116  -0.000198
              13         14         15
     1  C   -0.002107   0.006124  -0.005955
     2  C   -0.026366  -0.024127  -0.021693
     3  C   -0.002107  -0.006685  -0.005955
     4  C    0.362622   0.362895   0.008588
     5  O    0.003059   0.000991   0.227105
     6  H    0.001549  -0.000152  -0.000116
     7  H    0.000127  -0.000067  -0.000590
     8  H   -0.000038  -0.000210   0.005594
     9  H    0.000127   0.004343  -0.000590
    10  H   -0.000038  -0.000067   0.005594
    11  H    0.001549   0.000297  -0.000116
    12  H   -0.028481  -0.030310  -0.000198
    13  H    0.579064  -0.028481  -0.000293
    14  H   -0.028481   0.564239  -0.000198
    15  H   -0.000293  -0.000198   0.406711
 Mulliken charges:
               1
     1  C   -0.447424
     2  C    0.309804
     3  C   -0.447425
     4  C   -0.441927
     5  O   -0.632833
     6  H    0.138363
     7  H    0.153049
     8  H    0.126118
     9  H    0.153050
    10  H    0.126118
    11  H    0.138363
    12  H    0.151410
    13  H    0.139814
    14  H    0.151409
    15  H    0.382112
 Sum of Mulliken charges =   0.00000
 Mulliken charges with hydrogens summed into heavy atoms:
               1
     1  C   -0.029894
     2  C    0.309804
     3  C   -0.029894
     4  C    0.000706
     5  O   -0.250721
 Electronic spatial extent (au):  <R**2>=            447.5835
 Charge=              0.0000 electrons
 Dipole moment (field-independent basis, Debye):
    X=              0.9975    Y=              0.0000    Z=             -1.0700  Tot=              1.4628
 Quadrupole moment (field-independent basis, Debye-Ang):
   XX=            -30.4349   YY=            -33.2205   ZZ=            -34.9341
   XY=              0.0000   XZ=              2.3455   YZ=              0.0000
 Traceless Quadrupole moment (field-independent basis, Debye-Ang):
   XX=              2.4283   YY=             -0.3573   ZZ=             -2.0709
   XY=              0.0000   XZ=              2.3455   YZ=              0.0000
 Octapole moment (field-independent basis, Debye-Ang**2):
  XXX=              5.6070  YYY=             -0.0001  ZZZ=              1.7544  XYY=             -0.8362
  XXY=              0.0001  XXZ=              7.0616  XZZ=              3.4461  YZZ=              0.0000
  YYZ=              3.1421  XYZ=              0.0000
 Hexadecapole moment (field-independent basis, Debye-Ang**3):
 XXXX=           -208.5193 YYYY=           -211.0341 ZZZZ=           -164.0163 XXXY=              0.0000
 XXXZ=              8.0565 YYYX=              0.0000 YYYZ=              0.0000 ZZZX=             11.5733
 ZZZY=              0.0000 XXYY=            -71.1807 XXZZ=            -57.0275 YYZZ=            -64.7729
 XXYZ=              0.0000 YYXZ=              0.5193 ZZXY=              0.0000
 N-N= 1.994348247661D+02 E-N=-9.423210821027D+02  KE= 2.315141387019D+02
 No NMR shielding tensors so no spin-rotation constants.
 Leave Link  601 at Thu Mar 19 18:26:41 2026, MaxMem=   536870912 cpu:         0.0
 (Enter C:\G09W\l701.exe)
 Compute integral first derivatives.
 ... and contract with generalized density number  0.
 Leave Link  701 at Thu Mar 19 18:26:41 2026, MaxMem=   536870912 cpu:         0.0
 (Enter C:\G09W\l702.exe)
 L702 exits ... SP integral derivatives will be done elsewhere.
 Leave Link  702 at Thu Mar 19 18:26:42 2026, MaxMem=   536870912 cpu:         1.0
 (Enter C:\G09W\l703.exe)
 Compute integral first derivatives, UseDBF=F ICtDFT=           0.
 Integral derivatives from FoFJK, PRISM(SPDF).
 Calling FoFJK, ICntrl=      2127 FMM=F ISym2X=0 I1Cent= 0 IOpClX= 0 NMat=1 NMatS=1 NMatT=0.
 FoFJK:  IHMeth= 1 ICntrl=    2127 DoSepK=F KAlg= 0 I1Cent=   0 FoldK=F
 IRaf=         0 NMat=   1 IRICut=       1 DoRegI=T DoRafI=F ISym2E= 0.
 FoFCou: FMM=F IPFlag=           0 FMFlag=      100000 FMFlg1=         800
         NFxFlg=           0 DoJE=F BraDBF=F KetDBF=F FulRan=T
         wScrn=  0.000000 ICntrl=    2127 IOpCl=  0 I1Cent=           0 NGrid=           0
         NMat0=    1 NMatS0=      1 NMatT0=    0 NMatD0=    1 NMtDS0=    0 NMtDT0=    0
 Symmetry not used in FoFCou.
 Leave Link  703 at Thu Mar 19 18:26:44 2026, MaxMem=   536870912 cpu:         2.0
 (Enter C:\G09W\l716.exe)
 Dipole        = 3.92461728D-01-2.45783357D-06-4.20953982D-01
 ***** Axes restored to original set *****
 -------------------------------------------------------------------
 Center     Atomic                   Forces (Hartrees/Bohr)
 Number     Number              X              Y              Z
 -------------------------------------------------------------------
      1        6           0.005254206   -0.002943930    0.001557182
      2        6           0.002852005    0.004118107    0.004097244
      3        6          -0.004743321    0.003420502    0.002118978
      4        6          -0.002716772   -0.003533024   -0.008326881
      5        8          -0.002529075   -0.003086735   -0.010041616
      6        1           0.001075514    0.000402261    0.001129226
      7        1          -0.002045425   -0.001302871    0.000082199
      8        1          -0.000455191    0.002396690    0.002005547
      9        1          -0.000312970   -0.002406069   -0.000015265
     10        1           0.002517816    0.000504598    0.001838756
     11        1           0.000001976    0.001085971    0.001188861
     12        1           0.001844130    0.000454053    0.001130702
     13        1           0.000892853    0.001373871    0.000325070
     14        1          -0.000273726    0.001802478    0.001249790
     15        1          -0.001362019   -0.002285901    0.001660207
 -------------------------------------------------------------------
 Cartesian Forces:  Max     0.010041616 RMS     0.002923219
 Leave Link  716 at Thu Mar 19 18:26:44 2026, MaxMem=   536870912 cpu:         0.0
 (Enter C:\G09W\l103.exe)

 GradGradGradGradGradGradGradGradGradGradGradGradGradGradGradGradGradGrad
 Berny optimization.
 FormGI is forming the generalized inverse of G from B-inverse, IUseBI=4.
 Internal  Forces:  Max     0.006133239 RMS     0.002012369
 Search for a local minimum.
 Step number   1 out of a maximum of   79
 All quantities printed in internal units (Hartrees-Bohrs-Radians)
 RMS Force = .20124D-02 SwitMx=.10000D-02 MixMth= 1
 Mixed Optimization -- RFO/linear search
 Second derivative matrix not updated -- first step.
 ITU=  0
     Eigenvalues ---    0.00395   0.00395   0.00407   0.01320   0.04435
     Eigenvalues ---    0.05424   0.05424   0.05427   0.05615   0.05615
     Eigenvalues ---    0.05625   0.06180   0.06380   0.16000   0.16000
     Eigenvalues ---    0.16000   0.16000   0.16000   0.16000   0.16000
     Eigenvalues ---    0.16000   0.16000   0.16000   0.16288   0.16339
     Eigenvalues ---    0.29605   0.29605   0.29687   0.34121   0.34121
     Eigenvalues ---    0.34130   0.34130   0.34132   0.34132   0.34255
     Eigenvalues ---    0.34258   0.34258   0.41261   0.52866
 RFO step:  Lambda=-1.92796614D-03 EMin= 3.95078189D-03
 Linear search not attempted -- first point.
 Iteration  1 RMS(Cart)=  0.02424144 RMS(Int)=  0.00029771
 Iteration  2 RMS(Cart)=  0.00039314 RMS(Int)=  0.00012669
 Iteration  3 RMS(Cart)=  0.00000002 RMS(Int)=  0.00012669
 ITry= 1 IFail=0 DXMaxC= 7.78D-02 DCOld= 1.00D+10 DXMaxT= 3.00D-01 DXLimC= 3.00D+00 Rises=F
 Variable       Old X    -DE/DX   Delta X   Delta X   Delta X     New X
                                 (Linear)    (Quad)   (Total)
    R1        2.88757   0.00559   0.00000   0.01876   0.01876   2.90633
    R2        2.06897   0.00089   0.00000   0.00259   0.00259   2.07157
    R3        2.07107  -0.00016   0.00000  -0.00045  -0.00045   2.07062
    R4        2.07111   0.00165   0.00000   0.00482   0.00482   2.07593
    R5        2.88757   0.00559   0.00000   0.01876   0.01876   2.90633
    R6        2.88591  -0.00002   0.00000  -0.00008  -0.00008   2.88584
    R7        2.69875   0.00613   0.00000   0.01480   0.01480   2.71354
    R8        2.07107  -0.00015   0.00000  -0.00045  -0.00045   2.07062
    R9        2.07111   0.00165   0.00000   0.00482   0.00482   2.07593
   R10        2.06897   0.00089   0.00000   0.00259   0.00259   2.07157
   R11        2.07126  -0.00006   0.00000  -0.00018  -0.00018   2.07108
   R12        2.06901  -0.00027   0.00000  -0.00080  -0.00080   2.06821
   R13        2.07126  -0.00006   0.00000  -0.00018  -0.00018   2.07108
   R14        1.83779  -0.00270   0.00000  -0.00509  -0.00509   1.83270
    A1        1.94818   0.00167   0.00000   0.00598   0.00598   1.95416
    A2        1.93416  -0.00220   0.00000  -0.01045  -0.01043   1.92372
    A3        1.93574  -0.00067   0.00000  -0.00302  -0.00301   1.93273
    A4        1.89402   0.00004   0.00000  -0.00193  -0.00193   1.89209
    A5        1.89199  -0.00122   0.00000  -0.01345  -0.01346   1.87853
    A6        1.85671   0.00243   0.00000   0.02356   0.02357   1.88028
    A7        1.93549  -0.00237   0.00000   0.00096   0.00063   1.93612
    A8        1.93027   0.00123   0.00000   0.00036   0.00050   1.93078
    A9        1.89466   0.00248   0.00000   0.02501   0.02459   1.91925
   A10        1.93027   0.00123   0.00000   0.00036   0.00050   1.93078
   A11        1.89466   0.00248   0.00000   0.02501   0.02459   1.91925
   A12        1.87680  -0.00506   0.00000  -0.05230  -0.05209   1.82471
   A13        1.93416  -0.00220   0.00000  -0.01044  -0.01043   1.92372
   A14        1.93574  -0.00067   0.00000  -0.00302  -0.00301   1.93273
   A15        1.94818   0.00167   0.00000   0.00598   0.00598   1.95416
   A16        1.85671   0.00243   0.00000   0.02356   0.02357   1.88028
   A17        1.89402   0.00004   0.00000  -0.00194  -0.00193   1.89209
   A18        1.89199  -0.00122   0.00000  -0.01346  -0.01346   1.87853
   A19        1.93473  -0.00112   0.00000  -0.00419  -0.00425   1.93047
   A20        1.94896  -0.00216   0.00000  -0.01884  -0.01898   1.92998
   A21        1.93473  -0.00111   0.00000  -0.00419  -0.00425   1.93047
   A22        1.89304   0.00117   0.00000   0.00210   0.00197   1.89501
   A23        1.85626   0.00236   0.00000   0.02536   0.02536   1.88162
   A24        1.89304   0.00117   0.00000   0.00210   0.00197   1.89501
   A25        1.88450  -0.00294   0.00000  -0.01815  -0.01815   1.86635
    D1        1.07961  -0.00095   0.00000  -0.01384  -0.01385   1.06576
    D2       -1.06845  -0.00173   0.00000  -0.01523  -0.01528  -1.08374
    D3       -3.12358   0.00222   0.00000   0.03302   0.03308  -3.09050
    D4       -3.09031  -0.00128   0.00000  -0.01946  -0.01946  -3.10977
    D5        1.04481  -0.00206   0.00000  -0.02084  -0.02090   1.02392
    D6       -1.01032   0.00189   0.00000   0.02740   0.02747  -0.98285
    D7       -1.03217  -0.00008   0.00000   0.00131   0.00129  -1.03087
    D8        3.10296  -0.00086   0.00000  -0.00008  -0.00014   3.10282
    D9        1.04783   0.00309   0.00000   0.04817   0.04822   1.09605
   D10        3.09031   0.00128   0.00000   0.01946   0.01946   3.10977
   D11        1.03216   0.00008   0.00000  -0.00131  -0.00129   1.03087
   D12       -1.07961   0.00095   0.00000   0.01384   0.01385  -1.06576
   D13       -1.04481   0.00206   0.00000   0.02085   0.02090  -1.02392
   D14       -3.10296   0.00086   0.00000   0.00008   0.00014  -3.10282
   D15        1.06845   0.00173   0.00000   0.01523   0.01528   1.08374
   D16        1.01032  -0.00189   0.00000  -0.02740  -0.02747   0.98285
   D17       -1.04783  -0.00309   0.00000  -0.04817  -0.04822  -1.09605
   D18        3.12358  -0.00222   0.00000  -0.03302  -0.03308   3.09050
   D19       -1.03740   0.00011   0.00000   0.01397   0.01382  -1.02357
   D20        1.07555  -0.00065   0.00000   0.00086   0.00075   1.07630
   D21       -3.09469  -0.00142   0.00000  -0.01225  -0.01233  -3.10702
   D22        3.09470   0.00142   0.00000   0.01224   0.01232   3.10702
   D23       -1.07554   0.00065   0.00000  -0.00087  -0.00075  -1.07630
   D24        1.03740  -0.00011   0.00000  -0.01398  -0.01383   1.02357
   D25        1.02865   0.00076   0.00000   0.01311   0.01307   1.04173
   D26       -3.14159   0.00000   0.00000   0.00000   0.00000  -3.14159
   D27       -1.02865  -0.00076   0.00000  -0.01311  -0.01308  -1.04172
   D28       -1.05274  -0.00003   0.00000  -0.01531  -0.01574  -1.06848
   D29        1.05271   0.00003   0.00000   0.01531   0.01574   1.06845
   D30        3.14158   0.00000   0.00000   0.00000   0.00000   3.14158
         Item               Value     Threshold  Converged?
 Maximum Force            0.006133     0.000450     NO 
 RMS     Force            0.002012     0.000300     NO 
 Maximum Displacement     0.077833     0.001800     NO 
 RMS     Displacement     0.024211     0.001200     NO 
 Predicted change in Energy=-9.908325D-04
 Lowest energy point so far.  Saving SCF results.
 GradGradGradGradGradGradGradGradGradGradGradGradGradGradGradGradGradGrad

 Leave Link  103 at Thu Mar 19 18:26:44 2026, MaxMem=   536870912 cpu:         0.0
 (Enter C:\G09W\l202.exe)
                          Input orientation:                          
 ---------------------------------------------------------------------
 Center     Atomic      Atomic             Coordinates (Angstroms)
 Number     Number       Type             X           Y           Z
 ---------------------------------------------------------------------
      1          6           0        1.389887   -0.212097    0.379501
      2          6           0        0.003816    0.027366   -0.242429
      3          6           0       -0.745199    1.147224    0.499345
      4          6           0       -0.816270   -1.260868   -0.241007
      5          8           0        0.141369    0.365853   -1.631113
      6          1           0        1.320474   -0.523435    1.428291
      7          1           0        1.925757   -0.988902   -0.177304
      8          1           0        1.995779    0.703537    0.343614
      9          1           0       -1.716883    1.330216    0.027161
     10          1           0       -0.174748    2.085423    0.465447
     11          1           0       -0.913914    0.899108    1.553709
     12          1           0       -0.298147   -2.048603   -0.799724
     13          1           0       -0.981475   -1.610620    0.782812
     14          1           0       -1.790534   -1.098462   -0.715956
     15          1           0        0.660088    1.184259   -1.672347
 ---------------------------------------------------------------------
                    Distance matrix (angstroms):
                    1          2          3          4          5
     1  C    0.000000
     2  C    1.537963   0.000000
     3  C    2.533911   1.537963   0.000000
     4  C    2.520333   1.527119   2.520333   0.000000
     5  O    2.436266   1.435945   2.436266   2.344289   0.000000
     6  H    1.096226   2.197334   2.814435   2.809989   3.397216
     7  H    1.095725   2.175063   3.486386   2.756218   2.670761
     8  H    1.098536   2.183705   2.781019   3.479697   2.729911
     9  H    3.486387   2.175063   1.095725   2.756218   2.670762
    10  H    2.781019   2.183705   1.098536   3.479697   2.729911
    11  H    2.814434   2.197333   1.096225   2.809989   3.397216
    12  H    2.759127   2.170578   3.478612   1.095967   2.591135
    13  H    2.782424   2.169082   2.782423   1.094451   3.315759
    14  H    3.478612   2.170578   2.759128   1.095967   2.591134
    15  H    2.586986   1.952885   2.586976   3.194842   0.969824
                    6          7          8          9         10
     6  H    0.000000
     7  H    1.777910   0.000000
     8  H    1.771447   1.772176   0.000000
     9  H    3.824229   4.323071   3.778456   0.000000
    10  H    3.157357   3.778455   2.575973   1.772177   0.000000
    11  H    2.651763   3.824228   3.157355   1.777910   1.771447
    12  H    3.148034   2.540890   3.760797   3.756724   4.325050
    13  H    2.626325   3.124157   3.796348   3.124156   3.796348
    14  H    3.821887   3.756723   4.325049   2.540890   3.760797
    15  H    3.600873   2.925696   2.465615   2.925683   2.465605
                   11         12         13         14         15
    11  H    0.000000
    12  H    3.821887   0.000000
    13  H    2.626325   1.778535   0.000000
    14  H    3.148036   1.771159   1.778536   0.000000
    15  H    3.600865   3.482971   4.066188   3.482965   0.000000
 Stoichiometry    C4H10O
 Framework group  C1[X(C4H10O)]
 Deg. of freedom    39
 Full point group                 C1      NOp   1
 RotChk:  IX=0 Diff= 2.44D-01
 Largest Abelian subgroup         C1      NOp   1
 Largest concise Abelian subgroup C1      NOp   1
                         Standard orientation:                         
 ---------------------------------------------------------------------
 Center     Atomic      Atomic             Coordinates (Angstroms)
 Number     Number       Type             X           Y           Z
 ---------------------------------------------------------------------
      1          6           0        0.701328    1.266985   -0.496280
      2          6           0       -0.003027    0.000000    0.017494
      3          6           0        0.701430   -1.266926   -0.496287
      4          6           0       -1.474767   -0.000058   -0.390028
      5          8           0       -0.026313   -0.000005    1.453250
      6          1           0        0.692208    1.325915   -1.590882
      7          1           0        0.210058    2.161544   -0.097491
      8          1           0        1.750278    1.288058   -0.170643
      9          1           0        0.210231   -2.161527   -0.097504
     10          1           0        1.750382   -1.287916   -0.170650
     11          1           0        0.692316   -1.325849   -1.590889
     12          1           0       -1.984735    0.885500    0.006030
     13          1           0       -1.572104   -0.000060   -1.480142
     14          1           0       -1.984664   -0.885659    0.006027
     15          1           0        0.896756    0.000022    1.750742
 ---------------------------------------------------------------------
 Rotational constants (GHZ):      4.6775874      4.6697925      4.4723815
 Leave Link  202 at Thu Mar 19 18:26:44 2026, MaxMem=   536870912 cpu:         0.0
 (Enter C:\G09W\l301.exe)
 Standard basis: 6-31G(d) (6D, 7F)
 Ernie: Thresh=  0.10000D-02 Tol=  0.10000D-05 Strict=F.
 There are    95 symmetry adapted cartesian basis functions of A   symmetry.
 There are    95 symmetry adapted basis functions of A   symmetry.
    95 basis functions,   180 primitive gaussians,    95 cartesian basis functions
    21 alpha electrons       21 beta electrons
       nuclear repulsion energy       198.8172466966 Hartrees.
 IExCor=  402 DFT=T Ex+Corr=B3LYP ExCW=0 ScaHFX=  0.200000
 ScaDFX=  0.800000  0.720000  1.000000  0.810000 ScalE2=  1.000000  1.000000
 IRadAn=      0 IRanWt=     -1 IRanGd=            0 ICorTp=0 IEmpDi=  4
 NAtoms=   15 NActive=   15 NUniq=   15 SFac= 1.00D+00 NAtFMM=   60 NAOKFM=F Big=F
 Integral buffers will be    131072 words long.
 Raffenetti 2 integral format.
 Two-electron integral symmetry is turned on.
 Leave Link  301 at Thu Mar 19 18:26:44 2026, MaxMem=   536870912 cpu:         0.0
 (Enter C:\G09W\l302.exe)
 NPDir=0 NMtPBC=     1 NCelOv=     1 NCel=       1 NClECP=     1 NCelD=      1
         NCelK=      1 NCelE2=     1 NClLst=     1 CellRange=     0.0.
 One-electron integrals computed using PRISM.
 NBasis=    95 RedAO= T EigKep=  3.47D-03  NBF=    95
 NBsUse=    95 1.00D-06 EigRej= -1.00D+00 NBFU=    95
 Precomputing XC quadrature grid using
 IXCGrd= 4 IRadAn=           0 IRanWt=          -1 IRanGd=           0 AccXCQ= 0.00D+00.
 Generated NRdTot=       0 NPtTot=           0 NUsed=           0 NTot=          32
 NSgBfM=    95    95    95    95    95 MxSgAt=    15 MxSgA2=    15.
 Leave Link  302 at Thu Mar 19 18:26:45 2026, MaxMem=   536870912 cpu:         0.0
 (Enter C:\G09W\l303.exe)
 DipDrv:  MaxL=1.
 Leave Link  303 at Thu Mar 19 18:26:45 2026, MaxMem=   536870912 cpu:         0.0
 (Enter C:\G09W\l401.exe)
 Initial guess from the checkpoint file:  "tert-butanol_rdkit.chk"
 B after Tr=     0.000000    0.000000    0.000000
         Rot=    0.996101   -0.000003    0.088220   -0.000013 Ang= -10.12 deg.
 Guess basis will be translated and rotated to current coordinates.
 JPrj=2 DoOrth=T DoCkMO=T.
 Generating alternative initial guess.
 ExpMin= 1.61D-01 ExpMax= 5.48D+03 ExpMxC= 8.25D+02 IAcc=1 IRadAn=         1 AccDes= 0.00D+00
 Harris functional with IExCor=  402 and IRadAn=       1 diagonalized for initial guess.
 HarFok:  IExCor=  402 AccDes= 0.00D+00 IRadAn=         1 IDoV= 1 UseB2=F ITyADJ=14
 ICtDFT=  3500011 ScaDFX=  1.000000  1.000000  1.000000  1.000000
 FoFCou: FMM=F IPFlag=           0 FMFlag=      100000 FMFlg1=           0
         NFxFlg=           0 DoJE=T BraDBF=F KetDBF=T FulRan=T
         wScrn=  0.000000 ICntrl=     500 IOpCl=  0 I1Cent=   200000004 NGrid=           0
         NMat0=    1 NMatS0=      1 NMatT0=    0 NMatD0=    1 NMtDS0=    0 NMtDT0=    0
 Petite list used in FoFCou.
 Harris En= -233.740121881851    
 Leave Link  401 at Thu Mar 19 18:26:46 2026, MaxMem=   536870912 cpu:         1.0
 (Enter C:\G09W\l502.exe)
 Closed shell SCF:
 Using DIIS extrapolation, IDIIS=  1040.
 Integral symmetry usage will be decided dynamically.
 Keep R1 ints in memory in canonical form, NReq=11361312.
 IVT=       46930 IEndB=       46930 NGot=   536870912 MDV=   526424903
 LenX=   526424903 LenY=   526415437
 Requested convergence on RMS density matrix=1.00D-08 within 128 cycles.
 Requested convergence on MAX density matrix=1.00D-06.
 Requested convergence on             energy=1.00D-06.
 No special actions if energy rises.
 FoFCou: FMM=F IPFlag=           0 FMFlag=           0 FMFlg1=           0
         NFxFlg=           0 DoJE=F BraDBF=F KetDBF=F FulRan=T
         wScrn=  0.000000 ICntrl=     600 IOpCl=  0 I1Cent=           0 NGrid=           0
         NMat0=    1 NMatS0=   4560 NMatT0=    0 NMatD0=    1 NMtDS0=    0 NMtDT0=    0
 Symmetry not used in FoFCou.
 Integral accuracy reduced to 1.0D-05 until final iterations.

 Cycle   1  Pass 0  IDiag  1:
 E= -233.670336324842    
 DIIS: error= 1.40D-03 at cycle   1 NSaved=   1.
 NSaved= 1 IEnMin= 1 EnMin= -233.670336324842     IErMin= 1 ErrMin= 1.40D-03
 ErrMax= 1.40D-03  0.00D+00 EMaxC= 1.00D-01 BMatC= 3.35D-04 BMatP= 3.35D-04
 IDIUse=3 WtCom= 9.86D-01 WtEn= 1.40D-02
 Coeff-Com:  0.100D+01
 Coeff-En:   0.100D+01
 Coeff:      0.100D+01
 Gap=     1.596 Goal=   None    Shift=    0.000
 GapD=    1.596 DampG=2.000 DampE=1.000 DampFc=2.0000 IDamp=-1.
 RMSDP=3.48D-04 MaxDP=6.22D-03              OVMax= 7.29D-03

 Cycle   2  Pass 0  IDiag  1:
 E= -233.670903090960     Delta-E=       -0.000566766117 Rises=F Damp=F
 DIIS: error= 2.58D-04 at cycle   2 NSaved=   2.
 NSaved= 2 IEnMin= 2 EnMin= -233.670903090960     IErMin= 2 ErrMin= 2.58D-04
 ErrMax= 2.58D-04  0.00D+00 EMaxC= 1.00D-01 BMatC= 5.84D-06 BMatP= 3.35D-04
 IDIUse=3 WtCom= 9.97D-01 WtEn= 2.58D-03
 Coeff-Com: -0.306D-01 0.103D+01
 Coeff-En:   0.000D+00 0.100D+01
 Coeff:     -0.305D-01 0.103D+01
 Gap=     0.326 Goal=   None    Shift=    0.000
 RMSDP=5.73D-05 MaxDP=8.33D-04 DE=-5.67D-04 OVMax= 1.19D-03

 Cycle   3  Pass 0  IDiag  1:
 E= -233.670905989294     Delta-E=       -0.000002898334 Rises=F Damp=F
 DIIS: error= 2.61D-04 at cycle   3 NSaved=   3.
 NSaved= 3 IEnMin= 3 EnMin= -233.670905989294     IErMin= 2 ErrMin= 2.58D-04
 ErrMax= 2.61D-04  0.00D+00 EMaxC= 1.00D-01 BMatC= 6.25D-06 BMatP= 5.84D-06
 IDIUse=3 WtCom= 9.97D-01 WtEn= 2.61D-03
 Coeff-Com: -0.345D-01 0.541D+00 0.494D+00
 Coeff-En:   0.000D+00 0.333D+00 0.667D+00
 Coeff:     -0.344D-01 0.540D+00 0.494D+00
 Gap=     0.326 Goal=   None    Shift=    0.000
 RMSDP=2.58D-05 MaxDP=4.95D-04 DE=-2.90D-06 OVMax= 4.66D-04

 Cycle   4  Pass 0  IDiag  1:
 E= -233.670911142451     Delta-E=       -0.000005153157 Rises=F Damp=F
 DIIS: error= 6.45D-05 at cycle   4 NSaved=   4.
 NSaved= 4 IEnMin= 4 EnMin= -233.670911142451     IErMin= 4 ErrMin= 6.45D-05
 ErrMax= 6.45D-05  0.00D+00 EMaxC= 1.00D-01 BMatC= 2.89D-07 BMatP= 5.84D-06
 IDIUse=1 WtCom= 1.00D+00 WtEn= 0.00D+00
 Coeff-Com: -0.123D-01 0.147D+00 0.222D+00 0.643D+00
 Coeff:     -0.123D-01 0.147D+00 0.222D+00 0.643D+00
 Gap=     0.326 Goal=   None    Shift=    0.000
 RMSDP=5.93D-06 MaxDP=1.27D-04 DE=-5.15D-06 OVMax= 1.21D-04

 Initial convergence to 1.0D-05 achieved.  Increase integral accuracy.
 Cycle   5  Pass 1  IDiag  1:
 E= -233.670885137500     Delta-E=        0.000026004951 Rises=F Damp=F
 DIIS: error= 1.55D-05 at cycle   1 NSaved=   1.
 NSaved= 1 IEnMin= 1 EnMin= -233.670885137500     IErMin= 1 ErrMin= 1.55D-05
 ErrMax= 1.55D-05  0.00D+00 EMaxC= 1.00D-01 BMatC= 4.48D-08 BMatP= 4.48D-08
 IDIUse=1 WtCom= 1.00D+00 WtEn= 0.00D+00
 Coeff-Com:  0.100D+01
 Coeff:      0.100D+01
 Gap=     0.326 Goal=   None    Shift=    0.000
 RMSDP=5.93D-06 MaxDP=1.27D-04 DE= 2.60D-05 OVMax= 8.34D-05

 Cycle   6  Pass 1  IDiag  1:
 E= -233.670885143199     Delta-E=       -0.000000005699 Rises=F Damp=F
 DIIS: error= 2.58D-05 at cycle   2 NSaved=   2.
 NSaved= 2 IEnMin= 2 EnMin= -233.670885143199     IErMin= 1 ErrMin= 1.55D-05
 ErrMax= 2.58D-05  0.00D+00 EMaxC= 1.00D-01 BMatC= 5.28D-08 BMatP= 4.48D-08
 IDIUse=1 WtCom= 1.00D+00 WtEn= 0.00D+00
 Coeff-Com:  0.524D+00 0.476D+00
 Coeff:      0.524D+00 0.476D+00
 Gap=     0.326 Goal=   None    Shift=    0.000
 RMSDP=2.51D-06 MaxDP=5.74D-05 DE=-5.70D-09 OVMax= 5.54D-05

 Cycle   7  Pass 1  IDiag  1:
 E= -233.670885180861     Delta-E=       -0.000000037662 Rises=F Damp=F
 DIIS: error= 5.64D-06 at cycle   3 NSaved=   3.
 NSaved= 3 IEnMin= 3 EnMin= -233.670885180861     IErMin= 3 ErrMin= 5.64D-06
 ErrMax= 5.64D-06  0.00D+00 EMaxC= 1.00D-01 BMatC= 2.46D-09 BMatP= 4.48D-08
 IDIUse=1 WtCom= 1.00D+00 WtEn= 0.00D+00
 Coeff-Com:  0.907D-02 0.174D+00 0.816D+00
 Coeff:      0.907D-02 0.174D+00 0.816D+00
 Gap=     0.326 Goal=   None    Shift=    0.000
 RMSDP=5.19D-07 MaxDP=1.18D-05 DE=-3.77D-08 OVMax= 1.06D-05

 Cycle   8  Pass 1  IDiag  1:
 E= -233.670885182418     Delta-E=       -0.000000001558 Rises=F Damp=F
 DIIS: error= 1.67D-06 at cycle   4 NSaved=   4.
 NSaved= 4 IEnMin= 4 EnMin= -233.670885182418     IErMin= 4 ErrMin= 1.67D-06
 ErrMax= 1.67D-06  0.00D+00 EMaxC= 1.00D-01 BMatC= 2.69D-10 BMatP= 2.46D-09
 IDIUse=1 WtCom= 1.00D+00 WtEn= 0.00D+00
 Coeff-Com: -0.135D-01 0.786D-01 0.446D+00 0.489D+00
 Coeff:     -0.135D-01 0.786D-01 0.446D+00 0.489D+00
 Gap=     0.326 Goal=   None    Shift=    0.000
 RMSDP=1.78D-07 MaxDP=3.21D-06 DE=-1.56D-09 OVMax= 2.99D-06

 Cycle   9  Pass 1  IDiag  1:
 E= -233.670885182666     Delta-E=       -0.000000000248 Rises=F Damp=F
 DIIS: error= 1.82D-07 at cycle   5 NSaved=   5.
 NSaved= 5 IEnMin= 5 EnMin= -233.670885182666     IErMin= 5 ErrMin= 1.82D-07
 ErrMax= 1.82D-07  0.00D+00 EMaxC= 1.00D-01 BMatC= 3.43D-12 BMatP= 2.69D-10
 IDIUse=1 WtCom= 1.00D+00 WtEn= 0.00D+00
 Coeff-Com: -0.446D-02 0.177D-01 0.108D+00 0.169D+00 0.710D+00
 Coeff:     -0.446D-02 0.177D-01 0.108D+00 0.169D+00 0.710D+00
 Gap=     0.326 Goal=   None    Shift=    0.000
 RMSDP=2.73D-08 MaxDP=3.74D-07 DE=-2.48D-10 OVMax= 4.65D-07

 Cycle  10  Pass 1  IDiag  1:
 E= -233.670885182680     Delta-E=       -0.000000000014 Rises=F Damp=F
 DIIS: error= 2.92D-08 at cycle   6 NSaved=   6.
 NSaved= 6 IEnMin= 6 EnMin= -233.670885182680     IErMin= 6 ErrMin= 2.92D-08
 ErrMax= 2.92D-08  0.00D+00 EMaxC= 1.00D-01 BMatC= 9.24D-14 BMatP= 3.43D-12
 IDIUse=1 WtCom= 1.00D+00 WtEn= 0.00D+00
 Coeff-Com: -0.230D-03-0.408D-03-0.712D-03 0.135D-01 0.174D+00 0.814D+00
 Coeff:     -0.230D-03-0.408D-03-0.712D-03 0.135D-01 0.174D+00 0.814D+00
 Gap=     0.326 Goal=   None    Shift=    0.000
 RMSDP=4.97D-09 MaxDP=5.61D-08 DE=-1.39D-11 OVMax= 7.02D-08

 SCF Done:  E(RB3LYP) =  -233.670885183     A.U. after   10 cycles
            NFock= 10  Conv=0.50D-08     -V/T= 2.0095
 KE= 2.314665646496D+02 PE=-9.410560230051D+02 EE= 2.771013264763D+02
 Leave Link  502 at Thu Mar 19 18:26:54 2026, MaxMem=   536870912 cpu:         8.0
 (Enter C:\G09W\l701.exe)
 Compute integral first derivatives.
 ... and contract with generalized density number  0.
 Leave Link  701 at Thu Mar 19 18:26:55 2026, MaxMem=   536870912 cpu:         0.0
 (Enter C:\G09W\l702.exe)
 L702 exits ... SP integral derivatives will be done elsewhere.
 Leave Link  702 at Thu Mar 19 18:26:55 2026, MaxMem=   536870912 cpu:         0.0
 (Enter C:\G09W\l703.exe)
 Compute integral first derivatives, UseDBF=F ICtDFT=           0.
 Integral derivatives from FoFJK, PRISM(SPDF).
 Calling FoFJK, ICntrl=      2127 FMM=F ISym2X=0 I1Cent= 0 IOpClX= 0 NMat=1 NMatS=1 NMatT=0.
 FoFJK:  IHMeth= 1 ICntrl=    2127 DoSepK=F KAlg= 0 I1Cent=   0 FoldK=F
 IRaf=         0 NMat=   1 IRICut=       1 DoRegI=T DoRafI=F ISym2E= 0.
 FoFCou: FMM=F IPFlag=           0 FMFlag=      100000 FMFlg1=         800
         NFxFlg=           0 DoJE=F BraDBF=F KetDBF=F FulRan=T
         wScrn=  0.000000 ICntrl=    2127 IOpCl=  0 I1Cent=           0 NGrid=           0
         NMat0=    1 NMatS0=      1 NMatT0=    0 NMatD0=    1 NMtDS0=    0 NMtDT0=    0
 Symmetry not used in FoFCou.
 Leave Link  703 at Thu Mar 19 18:26:58 2026, MaxMem=   536870912 cpu:         3.0
 (Enter C:\G09W\l716.exe)
 Dipole        = 4.87306525D-01 1.41948939D-05-3.42885550D-01
 ***** Axes restored to original set *****
 -------------------------------------------------------------------
 Center     Atomic                   Forces (Hartrees/Bohr)
 Number     Number              X              Y              Z
 -------------------------------------------------------------------
      1        6           0.001140237    0.000595744   -0.001824074
      2        6          -0.000964471   -0.001711562    0.002231777
      3        6          -0.000085649    0.001376037   -0.001755292
      4        6          -0.001587567   -0.002498798    0.000057538
      5        8           0.000834489    0.001274900    0.000407896
      6        1          -0.000636770    0.000324416   -0.000130327
      7        1          -0.000499654    0.000060340    0.000128314
      8        1          -0.000209936    0.000125672    0.000384094
      9        1           0.000274605   -0.000432538    0.000084854
     10        1           0.000232405   -0.000155929    0.000359270
     11        1           0.000550283   -0.000431283   -0.000196938
     12        1           0.000242089    0.000720274    0.000397821
     13        1          -0.000441004   -0.000729571    0.000418688
     14        1           0.000581156    0.000504363    0.000378833
     15        1           0.000569784    0.000977935   -0.000942453
 -------------------------------------------------------------------
 Cartesian Forces:  Max     0.002498798 RMS     0.000902005
 Leave Link  716 at Thu Mar 19 18:26:58 2026, MaxMem=   536870912 cpu:         0.0
 (Enter C:\G09W\l103.exe)

 GradGradGradGradGradGradGradGradGradGradGradGradGradGradGradGradGradGrad
 Berny optimization.
 Using GEDIIS/GDIIS optimizer.
 FormGI is forming the generalized inverse of G from B-inverse, IUseBI=4.
 Internal  Forces:  Max     0.002336582 RMS     0.000620900
 Search for a local minimum.
 Step number   2 out of a maximum of   79
 All quantities printed in internal units (Hartrees-Bohrs-Radians)
 RMS Force = .62090D-03 SwitMx=.10000D-02 MixMth= 2
 Mixed Optimization -- En-DIIS/RFO-DIIS
 Update second derivatives using D2CorX and points    1    2
 DE= -8.20D-04 DEPred=-9.91D-04 R= 8.27D-01
 TightC=F SS=  1.41D+00  RLast= 1.43D-01 DXNew= 5.0454D-01 4.2908D-01
 Trust test= 8.27D-01 RLast= 1.43D-01 DXMaxT set to 4.29D-01
 ITU=  1  0
 Use linear search instead of GDIIS.
     Eigenvalues ---    0.00395   0.00395   0.00407   0.01320   0.04389
     Eigenvalues ---    0.05307   0.05454   0.05482   0.05606   0.05638
     Eigenvalues ---    0.05651   0.06725   0.06982   0.14960   0.16000
     Eigenvalues ---    0.16000   0.16000   0.16000   0.16000   0.16000
     Eigenvalues ---    0.16000   0.16000   0.16071   0.16263   0.18017
     Eigenvalues ---    0.29070   0.29605   0.31199   0.34016   0.34121
     Eigenvalues ---    0.34129   0.34130   0.34132   0.34191   0.34247
     Eigenvalues ---    0.34258   0.34528   0.40485   0.53211
 RFO step:  Lambda=-1.11612449D-04 EMin= 3.95078324D-03
 Quartic linear search produced a step of -0.12874.
 Iteration  1 RMS(Cart)=  0.00521890 RMS(Int)=  0.00001892
 Iteration  2 RMS(Cart)=  0.00002216 RMS(Int)=  0.00001144
 Iteration  3 RMS(Cart)=  0.00000000 RMS(Int)=  0.00001144
 ITry= 1 IFail=0 DXMaxC= 2.18D-02 DCOld= 1.00D+10 DXMaxT= 4.29D-01 DXLimC= 3.00D+00 Rises=F
 Variable       Old X    -DE/DX   Delta X   Delta X   Delta X     New X
                                 (Linear)    (Quad)   (Total)
    R1        2.90633  -0.00094  -0.00242   0.00080  -0.00161   2.90472
    R2        2.07157  -0.00018  -0.00033   0.00005  -0.00029   2.07128
    R3        2.07062  -0.00035   0.00006  -0.00099  -0.00093   2.06969
    R4        2.07593  -0.00002  -0.00062   0.00085   0.00023   2.07616
    R5        2.90633  -0.00094  -0.00242   0.00080  -0.00161   2.90472
    R6        2.88584   0.00234   0.00001   0.00683   0.00684   2.89268
    R7        2.71354   0.00118  -0.00190   0.00530   0.00340   2.71694
    R8        2.07062  -0.00035   0.00006  -0.00098  -0.00093   2.06969
    R9        2.07593  -0.00002  -0.00062   0.00085   0.00023   2.07616
   R10        2.07157  -0.00018  -0.00033   0.00005  -0.00029   2.07128
   R11        2.07108  -0.00060   0.00002  -0.00158  -0.00155   2.06952
   R12        2.06821   0.00069   0.00010   0.00160   0.00170   2.06991
   R13        2.07108  -0.00060   0.00002  -0.00158  -0.00155   2.06952
   R14        1.83270   0.00117   0.00066   0.00097   0.00162   1.83432
    A1        1.95416  -0.00100  -0.00077  -0.00572  -0.00650   1.94766
    A2        1.92372  -0.00017   0.00134  -0.00184  -0.00051   1.92321
    A3        1.93273   0.00018   0.00039   0.00077   0.00115   1.93388
    A4        1.89209   0.00052   0.00025   0.00172   0.00196   1.89405
    A5        1.87853   0.00018   0.00173  -0.00357  -0.00185   1.87669
    A6        1.88028   0.00035  -0.00303   0.00922   0.00618   1.88646
    A7        1.93612   0.00015  -0.00008  -0.00158  -0.00166   1.93447
    A8        1.93078   0.00009  -0.00006   0.00433   0.00425   1.93503
    A9        1.91925  -0.00059  -0.00317  -0.00296  -0.00610   1.91315
   A10        1.93078   0.00009  -0.00006   0.00433   0.00426   1.93503
   A11        1.91925  -0.00059  -0.00317  -0.00296  -0.00610   1.91315
   A12        1.82471   0.00086   0.00671  -0.00121   0.00549   1.83020
   A13        1.92372  -0.00017   0.00134  -0.00184  -0.00051   1.92321
   A14        1.93273   0.00018   0.00039   0.00077   0.00115   1.93388
   A15        1.95416  -0.00100  -0.00077  -0.00572  -0.00650   1.94766
   A16        1.88028   0.00035  -0.00303   0.00922   0.00618   1.88646
   A17        1.89209   0.00052   0.00025   0.00172   0.00196   1.89405
   A18        1.87853   0.00018   0.00173  -0.00357  -0.00185   1.87668
   A19        1.93047  -0.00085   0.00055  -0.00569  -0.00514   1.92533
   A20        1.92998   0.00122   0.00244   0.00354   0.00601   1.93599
   A21        1.93047  -0.00085   0.00055  -0.00569  -0.00514   1.92533
   A22        1.89501  -0.00013  -0.00025   0.00017  -0.00006   1.89495
   A23        1.88162   0.00074  -0.00327   0.00780   0.00452   1.88614
   A24        1.89501  -0.00013  -0.00025   0.00017  -0.00006   1.89495
   A25        1.86635   0.00163   0.00234   0.00543   0.00776   1.87412
    D1        1.06576   0.00037   0.00178   0.00322   0.00500   1.07076
    D2       -1.08374   0.00009   0.00197  -0.00427  -0.00230  -1.08603
    D3       -3.09050  -0.00067  -0.00426  -0.00357  -0.00783  -3.09833
    D4       -3.10977   0.00025   0.00251   0.00031   0.00281  -3.10696
    D5        1.02392  -0.00003   0.00269  -0.00718  -0.00448   1.01944
    D6       -0.98285  -0.00079  -0.00354  -0.00648  -0.01001  -0.99286
    D7       -1.03087   0.00069  -0.00017   0.01107   0.01090  -1.01997
    D8        3.10282   0.00041   0.00002   0.00358   0.00361   3.10642
    D9        1.09605  -0.00035  -0.00621   0.00428  -0.00193   1.09412
   D10        3.10977  -0.00025  -0.00251  -0.00031  -0.00281   3.10696
   D11        1.03087  -0.00069   0.00017  -0.01107  -0.01090   1.01997
   D12       -1.06576  -0.00037  -0.00178  -0.00322  -0.00500  -1.07076
   D13       -1.02392   0.00003  -0.00269   0.00717   0.00448  -1.01944
   D14       -3.10282  -0.00041  -0.00002  -0.00359  -0.00361  -3.10642
   D15        1.08374  -0.00009  -0.00197   0.00427   0.00229   1.08603
   D16        0.98285   0.00079   0.00354   0.00647   0.01001   0.99286
   D17       -1.09605   0.00035   0.00621  -0.00429   0.00192  -1.09413
   D18        3.09050   0.00067   0.00426   0.00357   0.00783   3.09833
   D19       -1.02357   0.00007  -0.00178   0.00322   0.00146  -1.02211
   D20        1.07630   0.00016  -0.00010   0.00202   0.00193   1.07823
   D21       -3.10702   0.00024   0.00159   0.00082   0.00241  -3.10461
   D22        3.10702  -0.00024  -0.00159  -0.00082  -0.00241   3.10461
   D23       -1.07630  -0.00016   0.00010  -0.00202  -0.00194  -1.07823
   D24        1.02357  -0.00007   0.00178  -0.00322  -0.00147   1.02211
   D25        1.04173  -0.00008  -0.00168   0.00120  -0.00047   1.04125
   D26       -3.14159   0.00000   0.00000   0.00000   0.00000   3.14159
   D27       -1.04172   0.00008   0.00168  -0.00120   0.00047  -1.04125
   D28       -1.06848   0.00030   0.00203   0.00295   0.00501  -1.06347
   D29        1.06845  -0.00030  -0.00203  -0.00294  -0.00500   1.06345
   D30        3.14158   0.00000   0.00000   0.00000   0.00000   3.14158
         Item               Value     Threshold  Converged?
 Maximum Force            0.002337     0.000450     NO 
 RMS     Force            0.000621     0.000300     NO 
 Maximum Displacement     0.021802     0.001800     NO 
 RMS     Displacement     0.005229     0.001200     NO 
 Predicted change in Energy=-7.408688D-05
 Lowest energy point so far.  Saving SCF results.
 GradGradGradGradGradGradGradGradGradGradGradGradGradGradGradGradGradGrad

 Leave Link  103 at Thu Mar 19 18:26:58 2026, MaxMem=   536870912 cpu:         0.0
 (Enter C:\G09W\l202.exe)
                          Input orientation:                          
 ---------------------------------------------------------------------
 Center     Atomic      Atomic             Coordinates (Angstroms)
 Number     Number       Type             X           Y           Z
 ---------------------------------------------------------------------
      1          6           0        1.389826   -0.209373    0.377647
      2          6           0        0.002013    0.024361   -0.240455
      3          6           0       -0.742859    1.148419    0.497357
      4          6           0       -0.820022   -1.266927   -0.239127
      5          8           0        0.143969    0.369739   -1.628859
      6          1           0        1.317304   -0.517851    1.426914
      7          1           0        1.924774   -0.987298   -0.177513
      8          1           0        1.991819    0.709049    0.343655
      9          1           0       -1.715037    1.330020    0.026793
     10          1           0       -0.168099    2.084180    0.464893
     11          1           0       -0.907646    0.898683    1.551802
     12          1           0       -0.298269   -2.050338   -0.798934
     13          1           0       -0.988797   -1.622157    0.783184
     14          1           0       -1.791989   -1.099349   -0.715089
     15          1           0        0.663013    1.188843   -1.672266
 ---------------------------------------------------------------------
                    Distance matrix (angstroms):
                    1          2          3          4          5
     1  C    0.000000
     2  C    1.537110   0.000000
     3  C    2.531061   1.537110   0.000000
     4  C    2.526313   1.530741   2.526314   0.000000
     5  O    2.431789   1.437742   2.431789   2.353574   0.000000
     6  H    1.096074   2.191827   2.807989   2.811579   3.391502
     7  H    1.095235   2.173574   3.483245   2.759690   2.668187
     8  H    1.098659   2.183875   2.774010   3.485766   2.724058
     9  H    3.483246   2.173575   1.095235   2.759692   2.668188
    10  H    2.774010   2.183875   1.098659   3.485767   2.724058
    11  H    2.807989   2.191827   1.096074   2.811579   3.391502
    12  H    2.761006   2.169433   3.479953   1.095145   2.596367
    13  H    2.796116   2.177283   2.796117   1.095351   3.326974
    14  H    3.479953   2.169433   2.761006   1.095145   2.596368
    15  H    2.585616   1.960363   2.585609   3.206881   0.970681
                    6          7          8          9         10
     6  H    0.000000
     7  H    1.778647   0.000000
     8  H    1.770227   1.775867   0.000000
     9  H    3.817075   4.319714   3.771841   0.000000
    10  H    3.146820   3.771841   2.563383   1.775868   0.000000
    11  H    2.640562   3.817074   3.146820   1.778647   1.770227
    12  H    3.148491   2.541286   3.763539   3.757110   4.325326
    13  H    2.636662   3.132871   3.809433   3.132874   3.809434
    14  H    3.820212   3.757109   4.325325   2.541287   3.763539
    15  H    3.598030   2.926076   2.461679   2.926065   2.461672
                   11         12         13         14         15
    11  H    0.000000
    12  H    3.820213   0.000000
    13  H    2.636663   1.778557   0.000000
    14  H    3.148490   1.772741   1.778557   0.000000
    15  H    3.598025   3.489851   4.081597   3.489848   0.000000
 Stoichiometry    C4H10O
 Framework group  C1[X(C4H10O)]
 Deg. of freedom    39
 Full point group                 C1      NOp   1
 RotChk:  IX=0 Diff= 3.47D-02
 Largest Abelian subgroup         C1      NOp   1
 Largest concise Abelian subgroup C1      NOp   1
                         Standard orientation:                         
 ---------------------------------------------------------------------
 Center     Atomic      Atomic             Coordinates (Angstroms)
 Number     Number       Type             X           Y           Z
 ---------------------------------------------------------------------
      1          6           0        0.690543    1.265549   -0.510579
      2          6           0       -0.005661    0.000000    0.015151
      3          6           0        0.690607   -1.265512   -0.510584
      4          6           0       -1.490497   -0.000036   -0.356909
      5          8           0        0.014304   -0.000003    1.452755
      6          1           0        0.655349    1.320301   -1.604719
      7          1           0        0.208221    2.159862   -0.101788
      8          1           0        1.747824    1.281736   -0.212341
      9          1           0        0.208331   -2.159852   -0.101797
     10          1           0        1.747890   -1.281646   -0.212348
     11          1           0        0.655416   -1.320261   -1.604724
     12          1           0       -1.985401    0.886320    0.053923
     13          1           0       -1.621271   -0.000036   -1.444425
     14          1           0       -1.985357   -0.886420    0.053917
     15          1           0        0.944611    0.000013    1.729796
 ---------------------------------------------------------------------
 Rotational constants (GHZ):      4.6827612      4.6568869      4.4685243
 Leave Link  202 at Thu Mar 19 18:26:58 2026, MaxMem=   536870912 cpu:         0.0
 (Enter C:\G09W\l301.exe)
 Standard basis: 6-31G(d) (6D, 7F)
 Ernie: Thresh=  0.10000D-02 Tol=  0.10000D-05 Strict=F.
 There are    95 symmetry adapted cartesian basis functions of A   symmetry.
 There are    95 symmetry adapted basis functions of A   symmetry.
    95 basis functions,   180 primitive gaussians,    95 cartesian basis functions
    21 alpha electrons       21 beta electrons
       nuclear repulsion energy       198.7385876690 Hartrees.
 IExCor=  402 DFT=T Ex+Corr=B3LYP ExCW=0 ScaHFX=  0.200000
 ScaDFX=  0.800000  0.720000  1.000000  0.810000 ScalE2=  1.000000  1.000000
 IRadAn=      0 IRanWt=     -1 IRanGd=            0 ICorTp=0 IEmpDi=  4
 NAtoms=   15 NActive=   15 NUniq=   15 SFac= 1.00D+00 NAtFMM=   60 NAOKFM=F Big=F
 Integral buffers will be    131072 words long.
 Raffenetti 2 integral format.
 Two-electron integral symmetry is turned on.
[...]
 ! R8    R(3,9)                  1.095          -DE/DX =    0.0                 !
 ! R9    R(3,10)                 1.0983         -DE/DX =    0.0                 !
 ! R10   R(3,11)                 1.0963         -DE/DX =    0.0                 !
 ! R11   R(4,12)                 1.0949         -DE/DX =    0.0                 !
 ! R12   R(4,13)                 1.0953         -DE/DX =    0.0                 !
 ! R13   R(4,14)                 1.0949         -DE/DX =    0.0                 !
 ! R14   R(5,15)                 0.9708         -DE/DX =    0.0                 !
 ! A1    A(2,1,6)              111.5339         -DE/DX =    0.0                 !
 ! A2    A(2,1,7)              110.2398         -DE/DX =    0.0                 !
 ! A3    A(2,1,8)              110.7498         -DE/DX =    0.0                 !
 ! A4    A(6,1,7)              108.5462         -DE/DX =    0.0                 !
 ! A5    A(6,1,8)              107.5401         -DE/DX =    0.0                 !
 ! A6    A(7,1,8)              108.1147         -DE/DX =    0.0                 !
 ! A7    A(1,2,3)              110.9111         -DE/DX =    0.0                 !
 ! A8    A(1,2,4)              110.9039         -DE/DX =    0.0                 !
 ! A9    A(1,2,5)              109.567          -DE/DX =    0.0                 !
 ! A10   A(3,2,4)              110.904          -DE/DX =    0.0                 !
 ! A11   A(3,2,5)              109.567          -DE/DX =    0.0                 !
 ! A12   A(4,2,5)              104.8055         -DE/DX =    0.0                 !
 ! A13   A(2,3,9)              110.2398         -DE/DX =    0.0                 !
 ! A14   A(2,3,10)             110.7498         -DE/DX =    0.0                 !
 ! A15   A(2,3,11)             111.5339         -DE/DX =    0.0                 !
 ! A16   A(9,3,10)             108.1147         -DE/DX =    0.0                 !
 ! A17   A(9,3,11)             108.5462         -DE/DX =    0.0                 !
 ! A18   A(10,3,11)            107.5401         -DE/DX =    0.0                 !
 ! A19   A(2,4,12)             110.2339         -DE/DX =    0.0                 !
 ! A20   A(2,4,13)             110.948          -DE/DX =    0.0                 !
 ! A21   A(2,4,14)             110.2339         -DE/DX =    0.0                 !
 ! A22   A(12,4,13)            108.6155         -DE/DX =    0.0                 !
 ! A23   A(12,4,14)            108.121          -DE/DX =    0.0                 !
 ! A24   A(13,4,14)            108.6155         -DE/DX =    0.0                 !
 ! A25   A(2,5,15)             107.2744         -DE/DX =    0.0                 !
 ! D1    D(6,1,2,3)             61.4975         -DE/DX =    0.0                 !
 ! D2    D(6,1,2,4)            -62.1999         -DE/DX =    0.0                 !
 ! D3    D(6,1,2,5)           -177.4179         -DE/DX =    0.0                 !
 ! D4    D(7,1,2,3)           -177.8431         -DE/DX =    0.0                 !
 ! D5    D(7,1,2,4)             58.4595         -DE/DX =    0.0                 !
 ! D6    D(7,1,2,5)            -56.7586         -DE/DX =    0.0                 !
 ! D7    D(8,1,2,3)            -58.2353         -DE/DX =    0.0                 !
 ! D8    D(8,1,2,4)            178.0673         -DE/DX =    0.0                 !
 ! D9    D(8,1,2,5)             62.8492         -DE/DX =    0.0                 !
 ! D10   D(1,2,3,9)            177.8431         -DE/DX =    0.0                 !
 ! D11   D(1,2,3,10)            58.2352         -DE/DX =    0.0                 !
 ! D12   D(1,2,3,11)           -61.4976         -DE/DX =    0.0                 !
 ! D13   D(4,2,3,9)            -58.4596         -DE/DX =    0.0                 !
 ! D14   D(4,2,3,10)          -178.0674         -DE/DX =    0.0                 !
 ! D15   D(4,2,3,11)            62.1998         -DE/DX =    0.0                 !
 ! D16   D(5,2,3,9)             56.7585         -DE/DX =    0.0                 !
 ! D17   D(5,2,3,10)           -62.8493         -DE/DX =    0.0                 !
 ! D18   D(5,2,3,11)           177.4179         -DE/DX =    0.0                 !
 ! D19   D(1,2,4,12)           -58.507          -DE/DX =    0.0                 !
 ! D20   D(1,2,4,13)            61.8507         -DE/DX =    0.0                 !
 ! D21   D(1,2,4,14)          -177.7916         -DE/DX =    0.0                 !
 ! D22   D(3,2,4,12)           177.7915         -DE/DX =    0.0                 !
 ! D23   D(3,2,4,13)           -61.8508         -DE/DX =    0.0                 !
 ! D24   D(3,2,4,14)            58.5069         -DE/DX =    0.0                 !
 ! D25   D(5,2,4,12)            59.6422         -DE/DX =    0.0                 !
 ! D26   D(5,2,4,13)           179.9999         -DE/DX =    0.0                 !
 ! D27   D(5,2,4,14)           -59.6424         -DE/DX =    0.0                 !
 ! D28   D(1,2,5,15)           -60.9472         -DE/DX =    0.0                 !
 ! D29   D(3,2,5,15)            60.9465         -DE/DX =    0.0                 !
 ! D30   D(4,2,5,15)           179.9997         -DE/DX =    0.0                 !
 --------------------------------------------------------------------------------
 Lowest energy point so far.  Saving SCF results.
 GradGradGradGradGradGradGradGradGradGradGradGradGradGradGradGradGradGrad

 Largest change from initial coordinates is atom   15       0.342 Angstoms.
 Leave Link  103 at Thu Mar 19 18:27:21 2026, MaxMem=   536870912 cpu:         0.0
 (Enter C:\G09W\l202.exe)
                          Input orientation:                          
 ---------------------------------------------------------------------
 Center     Atomic      Atomic             Coordinates (Angstroms)
 Number     Number       Type             X           Y           Z
 ---------------------------------------------------------------------
      1          6           0        1.389869   -0.209344    0.377029
      2          6           0        0.001846    0.023988   -0.239194
      3          6           0       -0.742900    1.148501    0.496743
      4          6           0       -0.820123   -1.267159   -0.238307
      5          8           0        0.143297    0.368627   -1.628208
      6          1           0        1.317470   -0.519021    1.426142
      7          1           0        1.925584   -0.985697   -0.179096
      8          1           0        1.989820    0.709971    0.343934
      9          1           0       -1.714056    1.331512    0.025200
     10          1           0       -0.166404    2.082750    0.464966
     11          1           0       -0.908836    0.898375    1.551106
     12          1           0       -0.297402   -2.049228   -0.798658
     13          1           0       -0.989289   -1.622975    0.783684
     14          1           0       -1.791328   -1.098108   -0.714800
     15          1           0        0.662454    1.187809   -1.670540
 ---------------------------------------------------------------------
                    Distance matrix (angstroms):
                    1          2          3          4          5
     1  C    0.000000
     2  C    1.536483   0.000000
     3  C    2.531162   1.536483   0.000000
     4  C    2.526198   1.530587   2.526198   0.000000
     5  O    2.430837   1.438104   2.430837   2.352828   0.000000
     6  H    1.096257   2.190678   2.808832   2.810588   3.390524
     7  H    1.094984   2.173440   3.483155   2.760730   2.666583
     8  H    1.098261   2.182350   2.771898   3.484800   2.723143
     9  H    3.483155   2.173440   1.094984   2.760732   2.666583
    10  H    2.771897   2.182350   1.098261   3.484800   2.723144
    11  H    2.808833   2.190678   1.096257   2.810588   3.390524
    12  H    2.759402   2.168128   3.478794   1.094926   2.593914
    13  H    2.797162   2.177411   2.797163   1.095302   3.326627
    14  H    3.478794   2.168128   2.759401   1.094926   2.593916
    15  H    2.583352   1.959497   2.583347   3.205650   0.970760
                    6          7          8          9         10
     6  H    0.000000
     7  H    1.778870   0.000000
     8  H    1.770211   1.775663   0.000000
     9  H    3.818018   4.319511   3.769165   0.000000
    10  H    3.145625   3.769164   2.558999   1.775663   0.000000
    11  H    2.642170   3.818018   3.145626   1.778870   1.770211
    12  H    3.146281   2.540988   3.761660   3.757000   4.322864
    13  H    2.636779   3.135212   3.809345   3.135215   3.809346
    14  H    3.818848   3.757000   4.322864   2.540989   3.761660
    15  H    3.596074   2.923017   2.459337   2.923009   2.459332
                   11         12         13         14         15
    11  H    0.000000
    12  H    3.818849   0.000000
    13  H    2.636781   1.778821   0.000000
    14  H    3.146279   1.772985   1.778821   0.000000
    15  H    3.596071   3.487106   4.080683   3.487105   0.000000
 Stoichiometry    C4H10O
 Framework group  C1[X(C4H10O)]
 Deg. of freedom    39
 Full point group                 C1      NOp   1
 RotChk:  IX=0 Diff= 1.14D-14
 Largest Abelian subgroup         C1      NOp   1
 Largest concise Abelian subgroup C1      NOp   1
                         Standard orientation:                         
 ---------------------------------------------------------------------
 Center     Atomic      Atomic             Coordinates (Angstroms)
 Number     Number       Type             X           Y           Z
 ---------------------------------------------------------------------
      1          6           0        0.690393    1.265594   -0.510076
      2          6           0       -0.005515    0.000000    0.014103
      3          6           0        0.690439   -1.265567   -0.510080
      4          6           0       -1.490513   -0.000026   -0.356677
      5          8           0        0.014222   -0.000002    1.452072
      6          1           0        0.653653    1.321099   -1.604310
      7          1           0        0.209753    2.159759   -0.099657
      8          1           0        1.747696    1.279532   -0.213271
      9          1           0        0.209832   -2.159751   -0.099663
     10          1           0        1.747743   -1.279467   -0.213277
     11          1           0        0.653700   -1.321071   -1.604314
     12          1           0       -1.983714    0.886456    0.055348
     13          1           0       -1.622645   -0.000025   -1.443980
     14          1           0       -1.983682   -0.886529    0.055342
     15          1           0        0.945063    0.000009    1.727589
 ---------------------------------------------------------------------
 Rotational constants (GHZ):      4.6853686      4.6600854      4.4694454
 Leave Link  202 at Thu Mar 19 18:27:22 2026, MaxMem=   536870912 cpu:         0.0
 (Enter C:\G09W\l601.exe)
 Copying SCF densities to generalized density rwf, IOpCl= 0 IROHF=0.

 **********************************************************************

            Population analysis using the SCF density.

 **********************************************************************

 Orbital symmetries:
       Occupied  (A) (A) (A) (A) (A) (A) (A) (A) (A) (A) (A) (A)
                 (A) (A) (A) (A) (A) (A) (A) (A) (A)
       Virtual   (A) (A) (A) (A) (A) (A) (A) (A) (A) (A) (A) (A)
                 (A) (A) (A) (A) (A) (A) (A) (A) (A) (A) (A) (A)
                 (A) (A) (A) (A) (A) (A) (A) (A) (A) (A) (A) (A)
                 (A) (A) (A) (A) (A) (A) (A) (A) (A) (A) (A) (A)
                 (A) (A) (A) (A) (A) (A) (A) (A) (A) (A) (A) (A)
                 (A) (A) (A) (A) (A) (A) (A) (A) (A) (A) (A) (A)
                 (A) (A)
 The electronic state is 1-A.
 Alpha  occ. eigenvalues --  -19.13295 -10.23851 -10.17339 -10.17338 -10.16826
 Alpha  occ. eigenvalues --   -1.00782  -0.78171  -0.68754  -0.68646  -0.56278
 Alpha  occ. eigenvalues --   -0.48303  -0.44609  -0.44333  -0.40781  -0.39425
 Alpha  occ. eigenvalues --   -0.37627  -0.36427  -0.34864  -0.34341  -0.31214
 Alpha  occ. eigenvalues --   -0.25927
 Alpha virt. eigenvalues --    0.06599   0.11362   0.12943   0.15298   0.15994
 Alpha virt. eigenvalues --    0.16113   0.16731   0.19506   0.20062   0.21752
 Alpha virt. eigenvalues --    0.22469   0.24409   0.25799   0.25896   0.50521
 Alpha virt. eigenvalues --    0.50628   0.55522   0.57001   0.57582   0.61325
 Alpha virt. eigenvalues --    0.65375   0.68914   0.70259   0.73736   0.74003
 Alpha virt. eigenvalues --    0.84065   0.85913   0.88154   0.89277   0.90016
 Alpha virt. eigenvalues --    0.90317   0.91034   0.93497   0.93861   0.96243
 Alpha virt. eigenvalues --    0.97829   0.98546   1.03760   1.06059   1.18196
 Alpha virt. eigenvalues --    1.36952   1.39049   1.42080   1.44268   1.58031
 Alpha virt. eigenvalues --    1.72648   1.74587   1.75551   1.76867   1.83654
 Alpha virt. eigenvalues --    1.86503   1.89297   1.92363   2.08705   2.10071
 Alpha virt. eigenvalues --    2.14821   2.21725   2.21998   2.22396   2.25250
 Alpha virt. eigenvalues --    2.26540   2.29110   2.35578   2.43145   2.59736
 Alpha virt. eigenvalues --    2.63012   2.71531   2.72592   2.90843   3.77046
 Alpha virt. eigenvalues --    4.18028   4.30081   4.31450   4.62627
          Condensed to atoms (all electrons):
               1          2          3          4          5          6
     1  C    5.209563   0.377272  -0.076962  -0.067223  -0.053193   0.344716
     2  C    0.377272   4.547445   0.377272   0.394570   0.248391  -0.022180
     3  C   -0.076962   0.377272   5.209563  -0.067222  -0.053192   0.000651
     4  C   -0.067223   0.394570  -0.067222   5.148073  -0.063026  -0.002136
     5  O   -0.053193   0.248391  -0.053192  -0.063026   8.314968   0.003742
     6  H    0.344716  -0.022180   0.000651  -0.002136   0.003742   0.589010
     7  H    0.364477  -0.025814   0.006157  -0.006529   0.001782  -0.026652
     8  H    0.358797  -0.026613  -0.006688   0.005821  -0.001843  -0.029095
     9  H    0.006157  -0.025814   0.364477  -0.006529   0.001782  -0.000137
    10  H   -0.006688  -0.026613   0.358797   0.005821  -0.001843   0.000134
    11  H    0.000651  -0.022180   0.344716  -0.002136   0.003742   0.000252
    12  H   -0.006808  -0.024281   0.005983   0.363927   0.000999   0.000293
    13  H   -0.001772  -0.028313  -0.001772   0.360546   0.003433   0.001518
    14  H    0.005983  -0.024281  -0.006808   0.363927   0.000999  -0.000138
    15  H   -0.005480  -0.022558  -0.005480   0.009053   0.225105  -0.000123
               7          8          9         10         11         12
     1  C    0.364477   0.358797   0.006157  -0.006688   0.000651  -0.006808
     2  C   -0.025814  -0.026613  -0.025814  -0.026613  -0.022180  -0.024281
     3  C    0.006157  -0.006688   0.364477   0.358797   0.344716   0.005983
     4  C   -0.006529   0.005821  -0.006529   0.005821  -0.002136   0.363927
     5  O    0.001782  -0.001843   0.001782  -0.001843   0.003742   0.000999
     6  H   -0.026652  -0.029095  -0.000137   0.000134   0.000252   0.000293
     7  H    0.559743  -0.030689  -0.000195  -0.000089  -0.000137   0.004528
     8  H   -0.030689   0.593429  -0.000089   0.004508   0.000134  -0.000069
     9  H   -0.000195  -0.000089   0.559743  -0.030689  -0.026651  -0.000074
    10  H   -0.000089   0.004508  -0.030689   0.593429  -0.029095  -0.000204
    11  H   -0.000137   0.000134  -0.026651  -0.029095   0.589010  -0.000138
    12  H    0.004528  -0.000069  -0.000074  -0.000204  -0.000138   0.561044
    13  H    0.000136  -0.000054   0.000136  -0.000054   0.001518  -0.028485
    14  H   -0.000074  -0.000204   0.004528  -0.000069   0.000293  -0.028387
    15  H   -0.000566   0.005059  -0.000566   0.005059  -0.000123  -0.000191
              13         14         15
     1  C   -0.001772   0.005983  -0.005480
     2  C   -0.028313  -0.024281  -0.022558
     3  C   -0.001772  -0.006808  -0.005480
     4  C    0.360546   0.363927   0.009053
     5  O    0.003433   0.000999   0.225105
     6  H    0.001518  -0.000138  -0.000123
     7  H    0.000136  -0.000074  -0.000566
     8  H   -0.000054  -0.000204   0.005059
     9  H    0.000136   0.004528  -0.000566
    10  H   -0.000054  -0.000069   0.005059
    11  H    0.001518   0.000293  -0.000123
    12  H   -0.028485  -0.028387  -0.000191
    13  H    0.585623  -0.028485  -0.000330
    14  H   -0.028485   0.561044  -0.000191
    15  H   -0.000330  -0.000191   0.410673
 Mulliken charges:
               1
     1  C   -0.449490
     2  C    0.303698
     3  C   -0.449491
     4  C   -0.436934
     5  O   -0.631846
     6  H    0.140143
     7  H    0.153922
     8  H    0.127595
     9  H    0.153922
    10  H    0.127595
    11  H    0.140143
    12  H    0.151864
    13  H    0.136356
    14  H    0.151864
    15  H    0.380658
 Sum of Mulliken charges =   0.00000
 Mulliken charges with hydrogens summed into heavy atoms:
               1
     1  C   -0.027830
     2  C    0.303698
     3  C   -0.027830
     4  C    0.003150
     5  O   -0.251187
 Electronic spatial extent (au):  <R**2>=            450.0025
 Charge=              0.0000 electrons
 Dipole moment (field-independent basis, Debye):
    X=              1.2042    Y=              0.0000    Z=             -0.9112  Tot=              1.5101
 Quadrupole moment (field-independent basis, Debye-Ang):
   XX=            -31.3993   YY=            -33.1798   ZZ=            -34.0742
   XY=              0.0000   XZ=              2.8203   YZ=              0.0000
 Traceless Quadrupole moment (field-independent basis, Debye-Ang):
   XX=              1.4852   YY=             -0.2954   ZZ=             -1.1898
   XY=              0.0000   XZ=              2.8203   YZ=              0.0000
 Octapole moment (field-independent basis, Debye-Ang**2):
  XXX=              2.6575  YYY=             -0.0001  ZZZ=              4.0584  XYY=             -1.5897
  XXY=              0.0001  XXZ=              6.1131  XZZ=              5.2685  YZZ=              0.0001
  YYZ=              2.8856  XYZ=              0.0000
 Hexadecapole moment (field-independent basis, Debye-Ang**3):
 XXXX=           -212.8839 YYYY=           -212.2819 ZZZZ=           -158.2896 XXXY=              0.0000
 XXXZ=              4.1217 YYYX=              0.0000 YYYZ=              0.0000 ZZZX=             11.9325
 ZZZY=              0.0001 XXYY=            -71.5102 XXZZ=            -59.4631 YYZZ=            -65.1480
 XXYZ=              0.0000 YYXZ=              0.2376 ZZXY=              0.0001
 N-N= 1.987810759592D+02 E-N=-9.409881837592D+02  KE= 2.314640485865D+02
 No NMR shielding tensors so no spin-rotation constants.
 Leave Link  601 at Thu Mar 19 18:27:22 2026, MaxMem=   536870912 cpu:         0.0
 (Enter C:\G09W\l9999.exe)
 1|1|UNPC-DESKTOP-GS7R1K3|FOpt|RB3LYP|6-31G(d)|C4H10O1|1172|19-Mar-2026
 |0||#p opt B3LYP/6-31G(d)||tert-butanol||0,1|C,1.389868743,-0.20934409
 73,0.3770290827|C,0.0018464649,0.0239884091,-0.2391940344|C,-0.7429000
 629,1.1485014303,0.4967432754|C,-0.8201232759,-1.2671588739,-0.2383072
 486|O,0.1432970209,0.3686268189,-1.6282079239|H,1.3174701067,-0.519021
 0471,1.4261418337|H,1.9255835718,-0.9856973603,-0.1790963011|H,1.98982
 00396,0.709970998,0.34393446|H,-1.7140560265,1.3315118162,0.0251995335
 |H,-0.1664044395,2.0827499366,0.4649664361|H,-0.9088357264,0.898374859
 5,1.5511060698|H,-0.2974023812,-2.0492282279,-0.7986579566|H,-0.989289
 3394,-1.6229748007,0.7836836509|H,-1.7913282348,-1.0981083874,-0.71480
 00312|H,0.662453543,1.1878085238,-1.6705398466||Version=EM64W-G09RevD.
 01|State=1-A|HF=-233.6709578|RMSD=9.395e-009|RMSF=7.285e-005|Dipole=0.
 2188151,0.3029818,0.4618361|Quadrupole=0.3505377,1.3979309,-1.7484686,
 0.9664697,-0.8043074,-1.1285511|PG=C01 [X(C4H10O1)]||@


 ANYONE WHO IS NOT SHOCKED BY QUANTUM THEORY HAS
 NOT UNDERSTOOD IT. -- NIELS BOHR(1885-1962)
 Job cpu time:       0 days  0 hours  0 minutes 53.0 seconds.
 File lengths (MBytes):  RWF=      7 Int=      0 D2E=      0 Chk=      2 Scr=      1
 Normal termination of Gaussian 09 at Thu Mar 19 18:27:22 2026.
