 Entering Gaussian System, Link 0=C:\G09W\g09.exe
 Input=cyclohexane_rdkit.com
 Output=C:\workspace\delta_chem\data\raw\cyclohexane\cyclohexane_rdkit.out
 Initial command:
 C:\G09W\l1.exe ".\Gau-19908.inp" "C:\workspace\delta_chem\data\raw\cyclohexane\cyclohexane_rdkit.out" /scrdir=".\"
 Entering Link 1 = C:\G09W\l1.exe PID=      1208.
  
 Copyright (c) 1988,1990,1992,1993,1995,1998,2003,2009,2013,
            Gaussian, Inc.  All Rights Reserved.
  
 This is part of the Gaussian(R) 09 program.  It is based on
 the Gaussian(R) 03 system (copyright 2003, Gaussian, Inc.),
 the Gaussian(R) 98 system (copyright 1998, Gaussian, Inc.),
 the Gaussian(R) 94 system (copyright 1995, Gaussian, Inc.),
 the Gaussian 92(TM) system (copyright 1992, Gaussian, Inc.),
 the Gaussian 90(TM) system (copyright 1990, Gaussian, Inc.),
 the Gaussian 88(TM) system (copyright 1988, Gaussian, Inc.),
 the Gaussian 86(TM) system (copyright 1986, Carnegie Mellon
 University), and the Gaussian 82(TM) system (copyright 1983,
 Carnegie Mellon University). Gaussian is a federally registered
 trademark of Gaussian, Inc.
  
 This software contains proprietary and confidential information,
 including trade secrets, belonging to Gaussian, Inc.
  
 This software is provided under written license and may be
 used, copied, transmitted, or stored only in accord with that
 written license.
  
 The following legend is applicable only to US Government
 contracts under FAR:
  
                    RESTRICTED RIGHTS LEGEND
  
 Use, reproduction and disclosure by the US Government is
 subject to restrictions as set forth in subparagraphs (a)
 and (c) of the Commercial Computer Software - Restricted
 Rights clause in FAR 52.227-19.
  
 Gaussian, Inc.
 340 Quinnipiac St., Bldg. 40, Wallingford CT 06492
  
  
 ---------------------------------------------------------------
 Warning -- This program may not be used in any manner that
 competes with the business of Gaussian, Inc. or will provide
 assistance to any competitor of Gaussian, Inc.  The licensee
 of this program is prohibited from giving any competitor of
 Gaussian, Inc. access to this program.  By using this program,
 the user acknowledges that Gaussian, Inc. is engaged in the
 business of creating and licensing software in the field of
 computational chemistry and represents and warrants to the
 licensee that it is not a competitor of Gaussian, Inc. and that
 it will not use this program in any manner prohibited above.
 ---------------------------------------------------------------
  

 Cite this work as:
 Gaussian 09, Revision D.01,
 M. J. Frisch, G. W. Trucks, H. B. Schlegel, G. E. Scuseria, 
 M. A. Robb, J. R. Cheeseman, G. Scalmani, V. Barone, B. Mennucci, 
 G. A. Petersson, H. Nakatsuji, M. Caricato, X. Li, H. P. Hratchian, 
 A. F. Izmaylov, J. Bloino, G. Zheng, J. L. Sonnenberg, M. Hada, 
 M. Ehara, K. Toyota, R. Fukuda, J. Hasegawa, M. Ishida, T. Nakajima, 
 Y. Honda, O. Kitao, H. Nakai, T. Vreven, J. A. Montgomery, Jr., 
 J. E. Peralta, F. Ogliaro, M. Bearpark, J. J. Heyd, E. Brothers, 
 K. N. Kudin, V. N. Staroverov, T. Keith, R. Kobayashi, J. Normand, 
 K. Raghavachari, A. Rendell, J. C. Burant, S. S. Iyengar, J. Tomasi, 
 M. Cossi, N. Rega, J. M. Millam, M. Klene, J. E. Knox, J. B. Cross, 
 V. Bakken, C. Adamo, J. Jaramillo, R. Gomperts, R. E. Stratmann, 
 O. Yazyev, A. J. Austin, R. Cammi, C. Pomelli, J. W. Ochterski, 
 R. L. Martin, K. Morokuma, V. G. Zakrzewski, G. A. Voth, 
 P. Salvador, J. J. Dannenberg, S. Dapprich, A. D. Daniels, 
 O. Farkas, J. B. Foresman, J. V. Ortiz, J. Cioslowski, 
 and D. J. Fox, Gaussian, Inc., Wallingford CT, 2013.
 
 ******************************************
 Gaussian 09:  EM64W-G09RevD.01 13-Apr-2013
                19-Mar-2026 
 ******************************************
 %NProcShared=4
 Will use up to    4 processors via shared memory.
 %Mem=4GB
 %Chk=cyclohexane_rdkit.chk
 ---------------------
 #p opt B3LYP/6-31G(d)
 ---------------------
 1/14=-1,18=20,19=15,26=3,38=1/1,3;
 2/9=110,12=2,17=6,18=5,40=1/2;
 3/5=1,6=6,7=1,11=2,16=1,25=1,30=1,71=1,74=-5/1,2,3;
 4//1;
 5/5=2,38=5/2;
 6/7=2,8=2,9=2,10=2,28=1/1;
 7//1,2,3,16;
 1/14=-1,18=20,19=15,26=3/3(2);
 2/9=110/2;
 99//99;
 2/9=110/2;
 3/5=1,6=6,7=1,11=2,16=1,25=1,30=1,71=1,74=-5/1,2,3;
 4/5=5,16=3,69=1/1;
 5/5=2,38=5/2;
 7//1,2,3,16;
 1/14=-1,18=20,19=15,26=3/3(-5);
 2/9=110/2;
 6/7=2,8=2,9=2,10=2,19=2,28=1/1;
 99/9=1/99;
 Leave Link    1 at Thu Mar 19 18:08:11 2026, MaxMem=   536870912 cpu:         0.0
 (Enter C:\G09W\l101.exe)
 -----------
 cyclohexane
 -----------
 Symbolic Z-matrix:
 Charge =  0 Multiplicity = 1
 C                    -0.02     -1.47026  -0.12124 
 C                    -1.27731  -0.64059  -0.36728 
 C                    -1.24745   0.67122   0.41243 
 C                     0.02      1.47026   0.12124 
 C                     1.27731   0.64059   0.36728 
 C                     1.24745  -0.67122  -0.41243 
 H                    -0.00545  -1.80899   0.92206 
 H                    -0.04212  -2.36851  -0.74848 
 H                    -1.36772  -0.4253   -1.43914 
 H                    -2.16295  -1.21935  -0.08186 
 H                    -1.30468   0.45772   1.48693 
 H                    -2.12843   1.27141   0.15861 
 H                     0.00546   1.80899  -0.92206 
 H                     0.04212   2.36851   0.74848 
 H                     2.16295   1.21935   0.08187 
 H                     1.36771   0.4253    1.43914 
 H                     2.12843  -1.2714   -0.15861 
 H                     1.30468  -0.45772  -1.48693 
 
 NAtoms=     18 NQM=       18 NQMF=       0 NMMI=      0 NMMIF=      0
                NMic=       0 NMicF=      0.
                    Isotopes and Nuclear Properties:
 (Nuclear quadrupole moments (NQMom) in fm**2, nuclear magnetic moments (NMagM)
  in nuclear magnetons)

  Atom         1           2           3           4           5           6           7           8           9          10
 IAtWgt=          12          12          12          12          12          12           1           1           1           1
 AtmWgt=  12.0000000  12.0000000  12.0000000  12.0000000  12.0000000  12.0000000   1.0078250   1.0078250   1.0078250   1.0078250
 NucSpn=           0           0           0           0           0           0           1           1           1           1
 AtZEff=   0.0000000   0.0000000   0.0000000   0.0000000   0.0000000   0.0000000   0.0000000   0.0000000   0.0000000   0.0000000
 NQMom=    0.0000000   0.0000000   0.0000000   0.0000000   0.0000000   0.0000000   0.0000000   0.0000000   0.0000000   0.0000000
 NMagM=    0.0000000   0.0000000   0.0000000   0.0000000   0.0000000   0.0000000   2.7928460   2.7928460   2.7928460   2.7928460
 AtZNuc=   6.0000000   6.0000000   6.0000000   6.0000000   6.0000000   6.0000000   1.0000000   1.0000000   1.0000000   1.0000000

  Atom        11          12          13          14          15          16          17          18
 IAtWgt=           1           1           1           1           1           1           1           1
 AtmWgt=   1.0078250   1.0078250   1.0078250   1.0078250   1.0078250   1.0078250   1.0078250   1.0078250
 NucSpn=           1           1           1           1           1           1           1           1
 AtZEff=   0.0000000   0.0000000   0.0000000   0.0000000   0.0000000   0.0000000   0.0000000   0.0000000
 NQMom=    0.0000000   0.0000000   0.0000000   0.0000000   0.0000000   0.0000000   0.0000000   0.0000000
 NMagM=    2.7928460   2.7928460   2.7928460   2.7928460   2.7928460   2.7928460   2.7928460   2.7928460
 AtZNuc=   1.0000000   1.0000000   1.0000000   1.0000000   1.0000000   1.0000000   1.0000000   1.0000000
 Leave Link  101 at Thu Mar 19 18:08:11 2026, MaxMem=   536870912 cpu:         0.0
 (Enter C:\G09W\l103.exe)

 GradGradGradGradGradGradGradGradGradGradGradGradGradGradGradGradGradGrad
 Berny optimization.
 Initialization pass.
                           ----------------------------
                           !    Initial Parameters    !
                           ! (Angstroms and Degrees)  !
 --------------------------                            --------------------------
 ! Name  Definition              Value          Derivative Info.                !
 --------------------------------------------------------------------------------
 ! R1    R(1,2)                  1.5263         estimate D2E/DX2                !
 ! R2    R(1,6)                  1.5263         estimate D2E/DX2                !
 ! R3    R(1,7)                  1.097          estimate D2E/DX2                !
 ! R4    R(1,8)                  1.0958         estimate D2E/DX2                !
 ! R5    R(2,3)                  1.5263         estimate D2E/DX2                !
 ! R6    R(2,9)                  1.097          estimate D2E/DX2                !
 ! R7    R(2,10)                 1.0958         estimate D2E/DX2                !
 ! R8    R(3,4)                  1.5263         estimate D2E/DX2                !
 ! R9    R(3,11)                 1.097          estimate D2E/DX2                !
 ! R10   R(3,12)                 1.0958         estimate D2E/DX2                !
 ! R11   R(4,5)                  1.5263         estimate D2E/DX2                !
 ! R12   R(4,13)                 1.097          estimate D2E/DX2                !
 ! R13   R(4,14)                 1.0958         estimate D2E/DX2                !
 ! R14   R(5,6)                  1.5263         estimate D2E/DX2                !
 ! R15   R(5,15)                 1.0958         estimate D2E/DX2                !
 ! R16   R(5,16)                 1.097          estimate D2E/DX2                !
 ! R17   R(6,17)                 1.0958         estimate D2E/DX2                !
 ! R18   R(6,18)                 1.097          estimate D2E/DX2                !
 ! A1    A(2,1,6)              111.636          estimate D2E/DX2                !
 ! A2    A(2,1,7)              109.3947         estimate D2E/DX2                !
 ! A3    A(2,1,8)              109.6747         estimate D2E/DX2                !
 ! A4    A(6,1,7)              109.3946         estimate D2E/DX2                !
 ! A5    A(6,1,8)              109.6747         estimate D2E/DX2                !
 ! A6    A(7,1,8)              106.9505         estimate D2E/DX2                !
 ! A7    A(1,2,3)              111.6361         estimate D2E/DX2                !
 ! A8    A(1,2,9)              109.3947         estimate D2E/DX2                !
 ! A9    A(1,2,10)             109.6746         estimate D2E/DX2                !
 ! A10   A(3,2,9)              109.3947         estimate D2E/DX2                !
 ! A11   A(3,2,10)             109.6747         estimate D2E/DX2                !
 ! A12   A(9,2,10)             106.9504         estimate D2E/DX2                !
 ! A13   A(2,3,4)              111.6361         estimate D2E/DX2                !
 ! A14   A(2,3,11)             109.3947         estimate D2E/DX2                !
 ! A15   A(2,3,12)             109.6747         estimate D2E/DX2                !
 ! A16   A(4,3,11)             109.3947         estimate D2E/DX2                !
 ! A17   A(4,3,12)             109.6747         estimate D2E/DX2                !
 ! A18   A(11,3,12)            106.9503         estimate D2E/DX2                !
 ! A19   A(3,4,5)              111.6361         estimate D2E/DX2                !
 ! A20   A(3,4,13)             109.3947         estimate D2E/DX2                !
 ! A21   A(3,4,14)             109.6747         estimate D2E/DX2                !
 ! A22   A(5,4,13)             109.3946         estimate D2E/DX2                !
 ! A23   A(5,4,14)             109.6747         estimate D2E/DX2                !
 ! A24   A(13,4,14)            106.9504         estimate D2E/DX2                !
 ! A25   A(4,5,6)              111.6361         estimate D2E/DX2                !
 ! A26   A(4,5,15)             109.6747         estimate D2E/DX2                !
 ! A27   A(4,5,16)             109.3947         estimate D2E/DX2                !
 ! A28   A(6,5,15)             109.6747         estimate D2E/DX2                !
 ! A29   A(6,5,16)             109.3946         estimate D2E/DX2                !
 ! A30   A(15,5,16)            106.9504         estimate D2E/DX2                !
 ! A31   A(1,6,5)              111.6361         estimate D2E/DX2                !
 ! A32   A(1,6,17)             109.6747         estimate D2E/DX2                !
 ! A33   A(1,6,18)             109.3947         estimate D2E/DX2                !
 ! A34   A(5,6,17)             109.6746         estimate D2E/DX2                !
 ! A35   A(5,6,18)             109.3947         estimate D2E/DX2                !
 ! A36   A(17,6,18)            106.9504         estimate D2E/DX2                !
 ! D1    D(6,1,2,3)            -54.2636         estimate D2E/DX2                !
 ! D2    D(6,1,2,9)             66.96           estimate D2E/DX2                !
 ! D3    D(6,1,2,10)          -176.0315         estimate D2E/DX2                !
 ! D4    D(7,1,2,3)             66.9599         estimate D2E/DX2                !
 ! D5    D(7,1,2,9)           -171.8165         estimate D2E/DX2                !
 ! D6    D(7,1,2,10)           -54.808          estimate D2E/DX2                !
 ! D7    D(8,1,2,3)           -176.0314         estimate D2E/DX2                !
 ! D8    D(8,1,2,9)            -54.8079         estimate D2E/DX2                !
 ! D9    D(8,1,2,10)            62.2007         estimate D2E/DX2                !
 ! D10   D(2,1,6,5)             54.2636         estimate D2E/DX2                !
 ! D11   D(2,1,6,17)           176.0315         estimate D2E/DX2                !
 ! D12   D(2,1,6,18)           -66.9599         estimate D2E/DX2                !
 ! D13   D(7,1,6,5)            -66.9599         estimate D2E/DX2                !
 ! D14   D(7,1,6,17)            54.808          estimate D2E/DX2                !
 ! D15   D(7,1,6,18)           171.8166         estimate D2E/DX2                !
 ! D16   D(8,1,6,5)            176.0315         estimate D2E/DX2                !
 ! D17   D(8,1,6,17)           -62.2006         estimate D2E/DX2                !
 ! D18   D(8,1,6,18)            54.808          estimate D2E/DX2                !
 ! D19   D(1,2,3,4)             54.2636         estimate D2E/DX2                !
 ! D20   D(1,2,3,11)           -66.96           estimate D2E/DX2                !
 ! D21   D(1,2,3,12)           176.0315         estimate D2E/DX2                !
 ! D22   D(9,2,3,4)            -66.96           estimate D2E/DX2                !
 ! D23   D(9,2,3,11)           171.8164         estimate D2E/DX2                !
 ! D24   D(9,2,3,12)            54.8079         estimate D2E/DX2                !
 ! D25   D(10,2,3,4)           176.0314         estimate D2E/DX2                !
 ! D26   D(10,2,3,11)           54.8078         estimate D2E/DX2                !
 ! D27   D(10,2,3,12)          -62.2006         estimate D2E/DX2                !
 ! D28   D(2,3,4,5)            -54.2635         estimate D2E/DX2                !
 ! D29   D(2,3,4,13)            66.9599         estimate D2E/DX2                !
 ! D30   D(2,3,4,14)          -176.0315         estimate D2E/DX2                !
 ! D31   D(11,3,4,5)            66.96           estimate D2E/DX2                !
 ! D32   D(11,3,4,13)         -171.8165         estimate D2E/DX2                !
 ! D33   D(11,3,4,14)          -54.8079         estimate D2E/DX2                !
 ! D34   D(12,3,4,5)          -176.0315         estimate D2E/DX2                !
 ! D35   D(12,3,4,13)          -54.8081         estimate D2E/DX2                !
 ! D36   D(12,3,4,14)           62.2005         estimate D2E/DX2                !
 ! D37   D(3,4,5,6)             54.2635         estimate D2E/DX2                !
 ! D38   D(3,4,5,15)           176.0315         estimate D2E/DX2                !
 ! D39   D(3,4,5,16)           -66.9599         estimate D2E/DX2                !
 ! D40   D(13,4,5,6)           -66.96           estimate D2E/DX2                !
 ! D41   D(13,4,5,15)           54.808          estimate D2E/DX2                !
 ! D42   D(13,4,5,16)          171.8166         estimate D2E/DX2                !
 ! D43   D(14,4,5,6)           176.0315         estimate D2E/DX2                !
 ! D44   D(14,4,5,15)          -62.2005         estimate D2E/DX2                !
 ! D45   D(14,4,5,16)           54.8081         estimate D2E/DX2                !
 ! D46   D(4,5,6,1)            -54.2636         estimate D2E/DX2                !
 ! D47   D(4,5,6,17)          -176.0315         estimate D2E/DX2                !
 ! D48   D(4,5,6,18)            66.96           estimate D2E/DX2                !
 ! D49   D(15,5,6,1)          -176.0316         estimate D2E/DX2                !
 ! D50   D(15,5,6,17)           62.2005         estimate D2E/DX2                !
 ! D51   D(15,5,6,18)          -54.808          estimate D2E/DX2                !
 ! D52   D(16,5,6,1)            66.9599         estimate D2E/DX2                !
 ! D53   D(16,5,6,17)          -54.808          estimate D2E/DX2                !
 ! D54   D(16,5,6,18)         -171.8165         estimate D2E/DX2                !
 --------------------------------------------------------------------------------
 Trust Radius=3.00D-01 FncErr=1.00D-07 GrdErr=1.00D-06
 Number of steps in this run=    108 maximum allowed number of steps=    108.
 GradGradGradGradGradGradGradGradGradGradGradGradGradGradGradGradGradGrad

 Leave Link  103 at Thu Mar 19 18:08:11 2026, MaxMem=   536870912 cpu:         0.0
 (Enter C:\G09W\l202.exe)
                          Input orientation:                          
 ---------------------------------------------------------------------
 Center     Atomic      Atomic             Coordinates (Angstroms)
 Number     Number       Type             X           Y           Z
 ---------------------------------------------------------------------
      1          6           0       -0.020003   -1.470263   -0.121235
      2          6           0       -1.277307   -0.640594   -0.367283
      3          6           0       -1.247450    0.671220    0.412433
      4          6           0        0.020003    1.470263    0.121235
      5          6           0        1.277307    0.640594    0.367283
      6          6           0        1.247450   -0.671220   -0.412434
      7          1           0       -0.005454   -1.808985    0.922058
      8          1           0       -0.042116   -2.368513   -0.748478
      9          1           0       -1.367715   -0.425301   -1.439141
     10          1           0       -2.162945   -1.219349   -0.081864
     11          1           0       -1.304676    0.457718    1.486932
     12          1           0       -2.128431    1.271405    0.158608
     13          1           0        0.005456    1.808985   -0.922058
     14          1           0        0.042116    2.368513    0.748477
     15          1           0        2.162945    1.219348    0.081866
     16          1           0        1.367714    0.425299    1.439142
     17          1           0        2.128431   -1.271404   -0.158609
     18          1           0        1.304675   -0.457717   -1.486932
 ---------------------------------------------------------------------
                    Distance matrix (angstroms):
                    1          2          3          4          5
     1  C    0.000000
     2  C    1.526337   0.000000
     3  C    2.525347   1.526337   0.000000
     4  C    2.950777   2.525348   1.526336   0.000000
     5  C    2.525348   2.950777   2.525346   1.526337   0.000000
     6  C    1.526337   2.525346   2.950776   2.525347   1.526337
     7  H    1.096998   2.155260   2.820228   3.375712   2.820228
     8  H    1.095799   2.157941   3.469945   3.936554   3.469946
     9  H    2.155261   1.096998   2.155261   2.820230   3.375713
    10  H    2.157941   1.095799   2.157942   3.469946   3.936554
    11  H    2.820230   2.155261   1.096999   2.155261   2.820229
    12  H    3.469946   2.157942   1.095800   2.157941   3.469945
    13  H    3.375712   2.820229   2.155261   1.096998   2.155259
    14  H    3.936554   3.469946   2.157941   1.095799   2.157941
    15  H    3.469945   3.936553   3.469944   2.157941   1.095798
    16  H    2.820229   3.375713   2.820229   2.155262   1.096999
    17  H    2.157941   3.469945   3.936553   3.469945   2.157941
    18  H    2.155261   2.820229   3.375712   2.820229   2.155261
                    6          7          8          9         10
     6  C    0.000000
     7  H    2.155260   0.000000
     8  H    2.157941   1.762131   0.000000
     9  H    2.820229   3.057057   2.451592   0.000000
    10  H    3.469945   2.451591   2.502572   1.762130   0.000000
    11  H    3.375713   2.673014   3.818206   3.057057   2.451591
    12  H    3.936553   3.818205   4.292379   2.451592   2.502573
    13  H    2.820227   4.060861   4.181373   2.673015   3.818206
    14  H    3.469945   4.181373   4.968640   3.818205   4.292379
    15  H    2.157941   3.818203   4.292378   4.181374   4.968639
    16  H    2.155261   2.673012   3.818205   4.060863   4.181373
    17  H    1.095799   2.451591   2.502572   3.818205   4.292378
    18  H    1.096998   3.057057   2.451592   2.673014   3.818205
                   11         12         13         14         15
    11  H    0.000000
    12  H    1.762130   0.000000
    13  H    3.057058   2.451592   0.000000
    14  H    2.451592   2.502572   1.762130   0.000000
    15  H    3.818205   4.292378   2.451590   2.502572   0.000000
    16  H    2.673014   3.818205   3.057057   2.451593   1.762131
    17  H    4.181374   4.968639   3.818203   4.292378   2.502572
    18  H    4.060862   4.181373   2.673012   3.818204   2.451592
                   16         17         18
    16  H    0.000000
    17  H    2.451591   0.000000
    18  H    3.057057   1.762130   0.000000
 This structure is nearly, but not quite of a higher symmetry.
 Consider Symm=Loose if the higher symmetry is desired.
 Stoichiometry    C6H12
 Framework group  C1[X(C6H12)]
 Deg. of freedom    48
 Full point group                 C1      NOp   1
 Largest Abelian subgroup         C1      NOp   1
 Largest concise Abelian subgroup C1      NOp   1
                         Standard orientation:                         
 ---------------------------------------------------------------------
 Center     Atomic      Atomic             Coordinates (Angstroms)
 Number     Number       Type             X           Y           Z
 ---------------------------------------------------------------------
      1          6           0       -1.331404   -0.300475    0.560223
      2          6           0       -1.028411    1.055462   -0.071705
      3          6           0        0.454491    1.403389    0.026554
      4          6           0        1.331404    0.300475   -0.560223
      5          6           0        1.028411   -1.055462    0.071705
      6          6           0       -0.454491   -1.403390   -0.026554
      7          1           0       -1.167593   -0.242351    1.643363
      8          1           0       -2.387805   -0.549811    0.409808
      9          1           0       -1.330208    1.041486   -1.126279
     10          1           0       -1.623214    1.833077    0.420536
     11          1           0        0.722730    1.561146    1.078489
     12          1           0        0.647714    2.346279   -0.497278
     13          1           0        1.167593    0.242349   -1.643362
     14          1           0        2.387804    0.549811   -0.409809
     15          1           0        1.623214   -1.833076   -0.420534
     16          1           0        1.330207   -1.041485    1.126281
     17          1           0       -0.647713   -2.346279    0.497277
     18          1           0       -0.722729   -1.561145   -1.078489
 ---------------------------------------------------------------------
 Rotational constants (GHZ):      4.3313399      4.3313368      2.4701284
 Leave Link  202 at Thu Mar 19 18:08:11 2026, MaxMem=   536870912 cpu:         0.0
 (Enter C:\G09W\l301.exe)
 Standard basis: 6-31G(d) (6D, 7F)
 Ernie: Thresh=  0.10000D-02 Tol=  0.10000D-05 Strict=F.
 There are   114 symmetry adapted cartesian basis functions of A   symmetry.
 There are   114 symmetry adapted basis functions of A   symmetry.
   114 basis functions,   216 primitive gaussians,   114 cartesian basis functions
    24 alpha electrons       24 beta electrons
       nuclear repulsion energy       256.3343067074 Hartrees.
 IExCor=  402 DFT=T Ex+Corr=B3LYP ExCW=0 ScaHFX=  0.200000
 ScaDFX=  0.800000  0.720000  1.000000  0.810000 ScalE2=  1.000000  1.000000
 IRadAn=      0 IRanWt=     -1 IRanGd=            0 ICorTp=0 IEmpDi=  4
 NAtoms=   18 NActive=   18 NUniq=   18 SFac= 1.00D+00 NAtFMM=   60 NAOKFM=F Big=F
 Integral buffers will be    131072 words long.
 Raffenetti 2 integral format.
 Two-electron integral symmetry is turned on.
 Leave Link  301 at Thu Mar 19 18:08:12 2026, MaxMem=   536870912 cpu:         0.0
 (Enter C:\G09W\l302.exe)
 NPDir=0 NMtPBC=     1 NCelOv=     1 NCel=       1 NClECP=     1 NCelD=      1
         NCelK=      1 NCelE2=     1 NClLst=     1 CellRange=     0.0.
 One-electron integrals computed using PRISM.
 NBasis=   114 RedAO= T EigKep=  4.75D-03  NBF=   114
 NBsUse=   114 1.00D-06 EigRej= -1.00D+00 NBFU=   114
 Precomputing XC quadrature grid using
 IXCGrd= 4 IRadAn=           0 IRanWt=          -1 IRanGd=           0 AccXCQ= 0.00D+00.
 Generated NRdTot=       0 NPtTot=           0 NUsed=           0 NTot=          32
 NSgBfM=   114   114   114   114   114 MxSgAt=    18 MxSgA2=    18.
 Leave Link  302 at Thu Mar 19 18:08:12 2026, MaxMem=   536870912 cpu:         0.0
 (Enter C:\G09W\l303.exe)
 DipDrv:  MaxL=1.
 Leave Link  303 at Thu Mar 19 18:08:12 2026, MaxMem=   536870912 cpu:         0.0
 (Enter C:\G09W\l401.exe)
 ExpMin= 1.61D-01 ExpMax= 3.05D+03 ExpMxC= 4.57D+02 IAcc=1 IRadAn=         1 AccDes= 0.00D+00
 Harris functional with IExCor=  402 and IRadAn=       1 diagonalized for initial guess.
 HarFok:  IExCor=  402 AccDes= 0.00D+00 IRadAn=         1 IDoV= 1 UseB2=F ITyADJ=14
 ICtDFT=  3500011 ScaDFX=  1.000000  1.000000  1.000000  1.000000
 FoFCou: FMM=F IPFlag=           0 FMFlag=      100000 FMFlg1=           0
         NFxFlg=           0 DoJE=T BraDBF=F KetDBF=T FulRan=T
         wScrn=  0.000000 ICntrl=     500 IOpCl=  0 I1Cent=   200000004 NGrid=           0
         NMat0=    1 NMatS0=      1 NMatT0=    0 NMatD0=    1 NMtDS0=    0 NMtDT0=    0
 Petite list used in FoFCou.
 Harris En= -235.943823880654    
 JPrj=0 DoOrth=F DoCkMO=F.
 Leave Link  401 at Thu Mar 19 18:08:13 2026, MaxMem=   536870912 cpu:         1.0
 (Enter C:\G09W\l502.exe)
 Closed shell SCF:
 Using DIIS extrapolation, IDIIS=  1040.
 Integral symmetry usage will be decided dynamically.
 Keep R1 ints in memory in canonical form, NReq=22482632.
 IVT=       59104 IEndB=       59104 NGot=   536870912 MDV=   515324519
 LenX=   515324519 LenY=   515311082
 Requested convergence on RMS density matrix=1.00D-08 within 128 cycles.
 Requested convergence on MAX density matrix=1.00D-06.
 Requested convergence on             energy=1.00D-06.
 No special actions if energy rises.
 FoFCou: FMM=F IPFlag=           0 FMFlag=           0 FMFlg1=           0
         NFxFlg=           0 DoJE=F BraDBF=F KetDBF=F FulRan=T
         wScrn=  0.000000 ICntrl=     600 IOpCl=  0 I1Cent=           0 NGrid=           0
         NMat0=    1 NMatS0=   6555 NMatT0=    0 NMatD0=    1 NMtDS0=    0 NMtDT0=    0
 Symmetry not used in FoFCou.
 Integral accuracy reduced to 1.0D-05 until final iterations.

 Cycle   1  Pass 0  IDiag  1:
 E= -235.631264705344    
 DIIS: error= 4.69D-02 at cycle   1 NSaved=   1.
 NSaved= 1 IEnMin= 1 EnMin= -235.631264705344     IErMin= 1 ErrMin= 4.69D-02
 ErrMax= 4.69D-02  0.00D+00 EMaxC= 1.00D-01 BMatC= 2.19D-01 BMatP= 2.19D-01
 IDIUse=3 WtCom= 5.31D-01 WtEn= 4.69D-01
 Coeff-Com:  0.100D+01
 Coeff-En:   0.100D+01
 Coeff:      0.100D+01
 Gap=     0.342 Goal=   None    Shift=    0.000
 GapD=    0.342 DampG=1.000 DampE=0.500 DampFc=0.5000 IDamp=-1.
 Damping current iteration by 5.00D-01
 RMSDP=1.05D-02 MaxDP=1.57D-01              OVMax= 1.95D-01

 Cycle   2  Pass 0  IDiag  1:
 E= -235.731546638215     Delta-E=       -0.100281932871 Rises=F Damp=T
 DIIS: error= 1.15D-02 at cycle   2 NSaved=   2.
 NSaved= 2 IEnMin= 2 EnMin= -235.731546638215     IErMin= 2 ErrMin= 1.15D-02
 ErrMax= 1.15D-02  0.00D+00 EMaxC= 1.00D-01 BMatC= 1.48D-02 BMatP= 2.19D-01
 IDIUse=3 WtCom= 8.85D-01 WtEn= 1.15D-01
 Coeff-Com:  0.119D+00 0.881D+00
 Coeff-En:   0.194D+00 0.806D+00
 Coeff:      0.128D+00 0.872D+00
 Gap=     0.380 Goal=   None    Shift=    0.000
 RMSDP=1.98D-03 MaxDP=3.07D-02 DE=-1.00D-01 OVMax= 1.10D-01

 Cycle   3  Pass 0  IDiag  1:
 E= -235.877722394789     Delta-E=       -0.146175756573 Rises=F Damp=F
 DIIS: error= 4.80D-03 at cycle   3 NSaved=   3.
 NSaved= 3 IEnMin= 3 EnMin= -235.877722394789     IErMin= 3 ErrMin= 4.80D-03
 ErrMax= 4.80D-03  0.00D+00 EMaxC= 1.00D-01 BMatC= 2.12D-03 BMatP= 1.48D-02
 IDIUse=3 WtCom= 9.52D-01 WtEn= 4.80D-02
 Coeff-Com:  0.744D-02 0.248D+00 0.744D+00
 Coeff-En:   0.000D+00 0.000D+00 0.100D+01
 Coeff:      0.708D-02 0.236D+00 0.757D+00
 Gap=     0.378 Goal=   None    Shift=    0.000
 RMSDP=5.88D-04 MaxDP=4.65D-03 DE=-1.46D-01 OVMax= 1.04D-02

 Cycle   4  Pass 0  IDiag  1:
 E= -235.879613514311     Delta-E=       -0.001891119522 Rises=F Damp=F
 DIIS: error= 9.85D-04 at cycle   4 NSaved=   4.
 NSaved= 4 IEnMin= 4 EnMin= -235.879613514311     IErMin= 4 ErrMin= 9.85D-04
 ErrMax= 9.85D-04  0.00D+00 EMaxC= 1.00D-01 BMatC= 8.23D-05 BMatP= 2.12D-03
 IDIUse=3 WtCom= 9.90D-01 WtEn= 9.85D-03
 Coeff-Com: -0.214D-02 0.309D-02 0.170D+00 0.829D+00
 Coeff-En:   0.000D+00 0.000D+00 0.000D+00 0.100D+01
 Coeff:     -0.212D-02 0.306D-02 0.168D+00 0.831D+00
 Gap=     0.378 Goal=   None    Shift=    0.000
 RMSDP=1.07D-04 MaxDP=7.95D-04 DE=-1.89D-03 OVMax= 1.78D-03

 Cycle   5  Pass 0  IDiag  1:
 E= -235.879692454002     Delta-E=       -0.000078939692 Rises=F Damp=F
 DIIS: error= 2.75D-05 at cycle   5 NSaved=   5.
 NSaved= 5 IEnMin= 5 EnMin= -235.879692454002     IErMin= 5 ErrMin= 2.75D-05
 ErrMax= 2.75D-05  0.00D+00 EMaxC= 1.00D-01 BMatC= 1.28D-07 BMatP= 8.23D-05
 IDIUse=1 WtCom= 1.00D+00 WtEn= 0.00D+00
 Coeff-Com: -0.887D-04-0.853D-03 0.168D-01 0.107D+00 0.878D+00
 Coeff:     -0.887D-04-0.853D-03 0.168D-01 0.107D+00 0.878D+00
 Gap=     0.378 Goal=   None    Shift=    0.000
 RMSDP=4.06D-06 MaxDP=3.98D-05 DE=-7.89D-05 OVMax= 6.25D-05

 Initial convergence to 1.0D-05 achieved.  Increase integral accuracy.
 Cycle   6  Pass 1  IDiag  1:
 E= -235.879732888935     Delta-E=       -0.000040434933 Rises=F Damp=F
 DIIS: error= 1.69D-05 at cycle   1 NSaved=   1.
 NSaved= 1 IEnMin= 1 EnMin= -235.879732888935     IErMin= 1 ErrMin= 1.69D-05
 ErrMax= 1.69D-05  0.00D+00 EMaxC= 1.00D-01 BMatC= 2.84D-08 BMatP= 2.84D-08
 IDIUse=1 WtCom= 1.00D+00 WtEn= 0.00D+00
 Coeff-Com:  0.100D+01
 Coeff:      0.100D+01
 Gap=     0.378 Goal=   None    Shift=    0.000
 RMSDP=4.06D-06 MaxDP=3.98D-05 DE=-4.04D-05 OVMax= 6.85D-05

 Cycle   7  Pass 1  IDiag  1:
 E= -235.879732930506     Delta-E=       -0.000000041571 Rises=F Damp=F
 DIIS: error= 3.64D-06 at cycle   2 NSaved=   2.
 NSaved= 2 IEnMin= 2 EnMin= -235.879732930506     IErMin= 2 ErrMin= 3.64D-06
 ErrMax= 3.64D-06  0.00D+00 EMaxC= 1.00D-01 BMatC= 1.88D-09 BMatP= 2.84D-08
 IDIUse=1 WtCom= 1.00D+00 WtEn= 0.00D+00
 Coeff-Com:  0.639D-01 0.936D+00
 Coeff:      0.639D-01 0.936D+00
 Gap=     0.378 Goal=   None    Shift=    0.000
 RMSDP=9.33D-07 MaxDP=1.16D-05 DE=-4.16D-08 OVMax= 1.78D-05

 Cycle   8  Pass 1  IDiag  1:
 E= -235.879732930413     Delta-E=        0.000000000094 Rises=F Damp=F
 DIIS: error= 3.63D-06 at cycle   3 NSaved=   3.
 NSaved= 3 IEnMin= 2 EnMin= -235.879732930506     IErMin= 3 ErrMin= 3.63D-06
 ErrMax= 3.63D-06  0.00D+00 EMaxC= 1.00D-01 BMatC= 2.12D-09 BMatP= 1.88D-09
 IDIUse=1 WtCom= 1.00D+00 WtEn= 0.00D+00
 Coeff-Com: -0.189D-01 0.522D+00 0.497D+00
 Coeff:     -0.189D-01 0.522D+00 0.497D+00
 Gap=     0.378 Goal=   None    Shift=    0.000
 RMSDP=4.51D-07 MaxDP=6.17D-06 DE= 9.35D-11 OVMax= 9.07D-06

 Cycle   9  Pass 1  IDiag  1:
 E= -235.879732932561     Delta-E=       -0.000000002148 Rises=F Damp=F
 DIIS: error= 3.49D-07 at cycle   4 NSaved=   4.
 NSaved= 4 IEnMin= 4 EnMin= -235.879732932561     IErMin= 4 ErrMin= 3.49D-07
 ErrMax= 3.49D-07  0.00D+00 EMaxC= 1.00D-01 BMatC= 2.00D-11 BMatP= 1.88D-09
 IDIUse=1 WtCom= 1.00D+00 WtEn= 0.00D+00
 Coeff-Com: -0.895D-02 0.141D+00 0.165D+00 0.702D+00
 Coeff:     -0.895D-02 0.141D+00 0.165D+00 0.702D+00
 Gap=     0.378 Goal=   None    Shift=    0.000
 RMSDP=5.26D-08 MaxDP=5.90D-07 DE=-2.15D-09 OVMax= 1.02D-06

 Cycle  10  Pass 1  IDiag  1:
 E= -235.879732932576     Delta-E=       -0.000000000015 Rises=F Damp=F
 DIIS: error= 3.55D-08 at cycle   5 NSaved=   5.
 NSaved= 5 IEnMin= 5 EnMin= -235.879732932576     IErMin= 5 ErrMin= 3.55D-08
 ErrMax= 3.55D-08  0.00D+00 EMaxC= 1.00D-01 BMatC= 2.48D-13 BMatP= 2.00D-11
 IDIUse=1 WtCom= 1.00D+00 WtEn= 0.00D+00
 Coeff-Com: -0.125D-02 0.120D-01 0.143D-01 0.129D+00 0.846D+00
 Coeff:     -0.125D-02 0.120D-01 0.143D-01 0.129D+00 0.846D+00
 Gap=     0.378 Goal=   None    Shift=    0.000
 RMSDP=6.65D-09 MaxDP=7.87D-08 DE=-1.50D-11 OVMax= 1.10D-07

 SCF Done:  E(RB3LYP) =  -235.879732933     A.U. after   10 cycles
            NFock= 10  Conv=0.66D-08     -V/T= 2.0097
 KE= 2.336208450100D+02 PE=-1.057453210578D+03 EE= 3.316183259276D+02
 Leave Link  502 at Thu Mar 19 18:08:24 2026, MaxMem=   536870912 cpu:        11.0
 (Enter C:\G09W\l601.exe)
 Copying SCF densities to generalized density rwf, IOpCl= 0 IROHF=0.

 **********************************************************************

            Population analysis using the SCF density.

 **********************************************************************

 Orbital symmetries:
       Occupied  (A) (A) (A) (A) (A) (A) (A) (A) (A) (A) (A) (A)
                 (A) (A) (A) (A) (A) (A) (A) (A) (A) (A) (A) (A)
       Virtual   (A) (A) (A) (A) (A) (A) (A) (A) (A) (A) (A) (A)
                 (A) (A) (A) (A) (A) (A) (A) (A) (A) (A) (A) (A)
                 (A) (A) (A) (A) (A) (A) (A) (A) (A) (A) (A) (A)
                 (A) (A) (A) (A) (A) (A) (A) (A) (A) (A) (A) (A)
                 (A) (A) (A) (A) (A) (A) (A) (A) (A) (A) (A) (A)
                 (A) (A) (A) (A) (A) (A) (A) (A) (A) (A) (A) (A)
                 (A) (A) (A) (A) (A) (A) (A) (A) (A) (A) (A) (A)
                 (A) (A) (A) (A) (A) (A)
 The electronic state is 1-A.
 Alpha  occ. eigenvalues --  -10.17101 -10.17091 -10.17091 -10.17069 -10.17069
 Alpha  occ. eigenvalues --  -10.17057  -0.82384  -0.73428  -0.73428  -0.59992
 Alpha  occ. eigenvalues --   -0.59992  -0.54237  -0.47249  -0.43663  -0.43101
 Alpha  occ. eigenvalues --   -0.43101  -0.36962  -0.36961  -0.36612  -0.33641
 Alpha  occ. eigenvalues --   -0.33641  -0.31010  -0.29054  -0.29054
 Alpha virt. eigenvalues --    0.08716   0.11173   0.13604   0.13605   0.16582
 Alpha virt. eigenvalues --    0.17540   0.17540   0.17925   0.18660   0.18660
 Alpha virt. eigenvalues --    0.19252   0.19252   0.24335   0.24335   0.26223
 Alpha virt. eigenvalues --    0.28260   0.28260   0.29971   0.51738   0.52604
 Alpha virt. eigenvalues --    0.54876   0.54876   0.54896   0.58624   0.58624
 Alpha virt. eigenvalues --    0.64750   0.64751   0.68063   0.73189   0.73190
 Alpha virt. eigenvalues --    0.75450   0.76115   0.82876   0.82879   0.86593
 Alpha virt. eigenvalues --    0.86593   0.86656   0.89298   0.90063   0.90064
 Alpha virt. eigenvalues --    0.92990   0.92990   0.96962   0.98048   0.98048
 Alpha virt. eigenvalues --    1.01279   1.03246   1.18003   1.18003   1.37882
 Alpha virt. eigenvalues --    1.37885   1.39636   1.39637   1.55765   1.57527
 Alpha virt. eigenvalues --    1.71071   1.71071   1.72567   1.74153   1.90270
 Alpha virt. eigenvalues --    1.90270   1.91380   1.91380   1.99019   1.99019
 Alpha virt. eigenvalues --    2.02941   2.03785   2.10196   2.16140   2.16140
 Alpha virt. eigenvalues --    2.27590   2.27590   2.36032   2.36032   2.39096
 Alpha virt. eigenvalues --    2.40555   2.40555   2.41661   2.62634   2.62634
 Alpha virt. eigenvalues --    2.68651   2.71089   2.71090   2.78854   4.14198
 Alpha virt. eigenvalues --    4.26208   4.26209   4.55381   4.55381   4.55559
          Condensed to atoms (all electrons):
               1          2          3          4          5          6
     1  C    4.989808   0.388349  -0.044339  -0.014905  -0.044294   0.388391
     2  C    0.388349   4.989996   0.388355  -0.044294  -0.014928  -0.044287
     3  C   -0.044339   0.388355   4.989874   0.388391  -0.044287  -0.014905
     4  C   -0.014905  -0.044294   0.388391   4.989808   0.388349  -0.044339
     5  C   -0.044294  -0.014928  -0.044287   0.388349   4.989996   0.388355
     6  C    0.388391  -0.044287  -0.014905  -0.044339   0.388355   4.989874
     7  H    0.372317  -0.041525  -0.004712  -0.000787  -0.004714  -0.041526
     8  H    0.369723  -0.034251   0.005081   0.000125   0.005081  -0.034246
     9  H   -0.041531   0.372311  -0.041527  -0.004715  -0.000787  -0.004715
    10  H   -0.034240   0.369720  -0.034244   0.005080   0.000125   0.005080
    11  H   -0.004714  -0.041523   0.372323  -0.041532  -0.004713  -0.000787
    12  H    0.005081  -0.034249   0.369726  -0.034251   0.005081   0.000125
    13  H   -0.000787  -0.004714  -0.041526   0.372317  -0.041525  -0.004712
    14  H    0.000125   0.005081  -0.034246   0.369723  -0.034251   0.005081
    15  H    0.005080   0.000125   0.005080  -0.034240   0.369720  -0.034244
    16  H   -0.004715  -0.000787  -0.004715  -0.041531   0.372311  -0.041527
    17  H   -0.034251   0.005081   0.000125   0.005081  -0.034249   0.369726
    18  H   -0.041532  -0.004713  -0.000787  -0.004714  -0.041523   0.372323
               7          8          9         10         11         12
     1  C    0.372317   0.369723  -0.041531  -0.034240  -0.004714   0.005081
     2  C   -0.041525  -0.034251   0.372311   0.369720  -0.041523  -0.034249
     3  C   -0.004712   0.005081  -0.041527  -0.034244   0.372323   0.369726
     4  C   -0.000787   0.000125  -0.004715   0.005080  -0.041532  -0.034251
     5  C   -0.004714   0.005081  -0.000787   0.000125  -0.004713   0.005081
     6  C   -0.041526  -0.034246  -0.004715   0.005080  -0.000787   0.000125
     7  H    0.618904  -0.036913   0.006315  -0.004911   0.005088  -0.000062
     8  H   -0.036913   0.612851  -0.004909  -0.002405  -0.000062  -0.000178
     9  H    0.006315  -0.004909   0.618885  -0.036905   0.006316  -0.004911
    10  H   -0.004911  -0.002405  -0.036905   0.612812  -0.004913  -0.002403
    11  H    0.005088  -0.000062   0.006316  -0.004913   0.618879  -0.036908
    12  H   -0.000062  -0.000178  -0.004911  -0.002403  -0.036908   0.612827
    13  H    0.000180  -0.000033   0.005088  -0.000062   0.006316  -0.004911
    14  H   -0.000033   0.000013  -0.000062  -0.000178  -0.004911  -0.002405
    15  H   -0.000062  -0.000178  -0.000033   0.000013  -0.000062  -0.000178
    16  H    0.005088  -0.000062   0.000180  -0.000033   0.005088  -0.000062
    17  H   -0.004911  -0.002405  -0.000062  -0.000178  -0.000033   0.000013
    18  H    0.006316  -0.004911   0.005088  -0.000062   0.000180  -0.000033
              13         14         15         16         17         18
     1  C   -0.000787   0.000125   0.005080  -0.004715  -0.034251  -0.041532
     2  C   -0.004714   0.005081   0.000125  -0.000787   0.005081  -0.004713
     3  C   -0.041526  -0.034246   0.005080  -0.004715   0.000125  -0.000787
     4  C    0.372317   0.369723  -0.034240  -0.041531   0.005081  -0.004714
     5  C   -0.041525  -0.034251   0.369720   0.372311  -0.034249  -0.041523
     6  C   -0.004712   0.005081  -0.034244  -0.041527   0.369726   0.372323
     7  H    0.000180  -0.000033  -0.000062   0.005088  -0.004911   0.006316
     8  H   -0.000033   0.000013  -0.000178  -0.000062  -0.002405  -0.004911
     9  H    0.005088  -0.000062  -0.000033   0.000180  -0.000062   0.005088
    10  H   -0.000062  -0.000178   0.000013  -0.000033  -0.000178  -0.000062
    11  H    0.006316  -0.004911  -0.000062   0.005088  -0.000033   0.000180
    12  H   -0.004911  -0.002405  -0.000178  -0.000062   0.000013  -0.000033
    13  H    0.618904  -0.036913  -0.004911   0.006315  -0.000062   0.005088
    14  H   -0.036913   0.612850  -0.002405  -0.004909  -0.000178  -0.000062
    15  H   -0.004911  -0.002405   0.612812  -0.036905  -0.002403  -0.004913
    16  H    0.006315  -0.004909  -0.036905   0.618886  -0.004911   0.006316
    17  H   -0.000062  -0.000178  -0.002403  -0.004911   0.612826  -0.036908
    18  H    0.005088  -0.000062  -0.004913   0.006316  -0.036908   0.618878
 Mulliken charges:
               1
     1  C   -0.253564
     2  C   -0.253746
     3  C   -0.253666
     4  C   -0.253564
     5  C   -0.253746
     6  C   -0.253666
     7  H    0.125948
     8  H    0.127680
     9  H    0.125976
    10  H    0.127705
    11  H    0.125970
    12  H    0.127698
    13  H    0.125948
    14  H    0.127680
    15  H    0.127705
    16  H    0.125975
    17  H    0.127698
    18  H    0.125970
 Sum of Mulliken charges =   0.00000
 Mulliken charges with hydrogens summed into heavy atoms:
               1
     1  C    0.000065
     2  C   -0.000066
     3  C    0.000001
     4  C    0.000065
     5  C   -0.000066
     6  C    0.000001
 Electronic spatial extent (au):  <R**2>=            589.3133
 Charge=              0.0000 electrons
 Dipole moment (field-independent basis, Debye):
    X=              0.0000    Y=              0.0000    Z=              0.0000  Tot=              0.0000
 Quadrupole moment (field-independent basis, Debye-Ang):
   XX=            -40.0901   YY=            -40.1270   ZZ=            -39.3531
   XY=              0.0128   XZ=              0.1790   YZ=              0.0563
 Traceless Quadrupole moment (field-independent basis, Debye-Ang):
   XX=             -0.2333   YY=             -0.2703   ZZ=              0.5036
   XY=              0.0128   XZ=              0.1790   YZ=              0.0563
 Octapole moment (field-independent basis, Debye-Ang**2):
  XXX=              0.0000  YYY=              0.0000  ZZZ=              0.0000  XYY=              0.0000
  XXY=              0.0000  XXZ=              0.0000  XZZ=              0.0000  YZZ=              0.0000
  YYZ=              0.0000  XYZ=              0.0000
 Hexadecapole moment (field-independent basis, Debye-Ang**3):
 XXXX=           -341.2558 YYYY=           -354.6923 ZZZZ=           -111.4017 XXXY=              3.1385
 XXXZ=             28.8930 YYYX=              1.2245 YYYZ=              7.2069 ZZZX=             29.1500
 ZZZY=              9.0337 XXYY=           -116.8366 XXZZ=            -77.3094 YYZZ=            -77.4421
 XXYZ=              4.2484 YYXZ=              7.3650 ZZXY=              0.3493
 N-N= 2.563343067074D+02 E-N=-1.057453216612D+03  KE= 2.336208450100D+02
 No NMR shielding tensors so no spin-rotation constants.
 Leave Link  601 at Thu Mar 19 18:08:25 2026, MaxMem=   536870912 cpu:         1.0
 (Enter C:\G09W\l701.exe)
 Compute integral first derivatives.
 ... and contract with generalized density number  0.
 Leave Link  701 at Thu Mar 19 18:08:25 2026, MaxMem=   536870912 cpu:         0.0
 (Enter C:\G09W\l702.exe)
 L702 exits ... SP integral derivatives will be done elsewhere.
 Leave Link  702 at Thu Mar 19 18:08:25 2026, MaxMem=   536870912 cpu:         0.0
 (Enter C:\G09W\l703.exe)
 Compute integral first derivatives, UseDBF=F ICtDFT=           0.
 Integral derivatives from FoFJK, PRISM(SPDF).
 Calling FoFJK, ICntrl=      2127 FMM=F ISym2X=0 I1Cent= 0 IOpClX= 0 NMat=1 NMatS=1 NMatT=0.
 FoFJK:  IHMeth= 1 ICntrl=    2127 DoSepK=F KAlg= 0 I1Cent=   0 FoldK=F
 IRaf=         0 NMat=   1 IRICut=       1 DoRegI=T DoRafI=F ISym2E= 0.
 FoFCou: FMM=F IPFlag=           0 FMFlag=      100000 FMFlg1=         800
         NFxFlg=           0 DoJE=F BraDBF=F KetDBF=F FulRan=T
         wScrn=  0.000000 ICntrl=    2127 IOpCl=  0 I1Cent=           0 NGrid=           0
         NMat0=    1 NMatS0=      1 NMatT0=    0 NMatD0=    1 NMtDS0=    0 NMtDT0=    0
 Symmetry not used in FoFCou.
 Leave Link  703 at Thu Mar 19 18:08:29 2026, MaxMem=   536870912 cpu:         4.0
 (Enter C:\G09W\l716.exe)
 Dipole        = 7.76832900D-08-2.59336395D-07-7.03029855D-07
 ***** Axes restored to original set *****
 -------------------------------------------------------------------
 Center     Atomic                   Forces (Hartrees/Bohr)
 Number     Number              X              Y              Z
 -------------------------------------------------------------------
      1        6          -0.000097353   -0.003810967   -0.002784378
      2        6          -0.003866791   -0.002522010    0.001312369
      3        6          -0.003755939    0.002521542   -0.001228732
      4        6           0.000097679    0.003810757    0.002784018
      5        6           0.003866291    0.002521197   -0.001311371
      6        6           0.003755573   -0.002521115    0.001229360
      7        1          -0.000003945   -0.000785736    0.001870464
      8        1          -0.000004038   -0.002341788    0.000634022
      9        1          -0.000328729    0.000291414   -0.002001783
     10        1          -0.001876740   -0.000740271   -0.001344583
     11        1          -0.000258027   -0.000296812    0.002019177
     12        1          -0.001814504    0.000795154    0.001419636
     13        1           0.000003794    0.000785726   -0.001870527
     14        1           0.000004001    0.002342025   -0.000633738
     15        1           0.001877205    0.000740660    0.001344377
     16        1           0.000328675   -0.000291215    0.002001034
     17        1           0.001814747   -0.000795401   -0.001419650
     18        1           0.000258100    0.000296840   -0.002019694
 -------------------------------------------------------------------
 Cartesian Forces:  Max     0.003866791 RMS     0.001900686
 Leave Link  716 at Thu Mar 19 18:08:29 2026, MaxMem=   536870912 cpu:         0.0
 (Enter C:\G09W\l103.exe)

 GradGradGradGradGradGradGradGradGradGradGradGradGradGradGradGradGradGrad
 Berny optimization.
 FormGI is forming the generalized inverse of G from B-inverse, IUseBI=4.
 Internal  Forces:  Max     0.006778624 RMS     0.001742918
 Search for a local minimum.
 Step number   1 out of a maximum of  108
 All quantities printed in internal units (Hartrees-Bohrs-Radians)
 RMS Force = .17429D-02 SwitMx=.10000D-02 MixMth= 1
 Mixed Optimization -- RFO/linear search
 Second derivative matrix not updated -- first step.
 ITU=  0
     Eigenvalues ---    0.00595   0.00595   0.00684   0.01960   0.01960
     Eigenvalues ---    0.03677   0.03977   0.03977   0.04276   0.04833
     Eigenvalues ---    0.04833   0.04903   0.05523   0.05523   0.05941
     Eigenvalues ---    0.06130   0.08138   0.08138   0.08185   0.08185
     Eigenvalues ---    0.08185   0.08186   0.08192   0.08192   0.12087
     Eigenvalues ---    0.12117   0.12117   0.16153   0.16153   0.21898
     Eigenvalues ---    0.28221   0.28434   0.28434   0.29764   0.29764
     Eigenvalues ---    0.29764   0.34016   0.34016   0.34016   0.34016
     Eigenvalues ---    0.34016   0.34016   0.34151   0.34151   0.34151
     Eigenvalues ---    0.34151   0.34151   0.34151
 RFO step:  Lambda=-1.46390177D-03 EMin= 5.94794252D-03
 Linear search not attempted -- first point.
 Iteration  1 RMS(Cart)=  0.01364700 RMS(Int)=  0.00008546
 Iteration  2 RMS(Cart)=  0.00006777 RMS(Int)=  0.00003919
 Iteration  3 RMS(Cart)=  0.00000000 RMS(Int)=  0.00003919
 ITry= 1 IFail=0 DXMaxC= 4.65D-02 DCOld= 1.00D+10 DXMaxT= 3.00D-01 DXLimC= 3.00D+00 Rises=F
 Variable       Old X    -DE/DX   Delta X   Delta X   Delta X     New X
                                 (Linear)    (Quad)   (Total)
    R1        2.88436   0.00672   0.00000   0.02246   0.02246   2.90682
    R2        2.88436   0.00678   0.00000   0.02266   0.02266   2.90702
    R3        2.07303   0.00202   0.00000   0.00591   0.00591   2.07894
    R4        2.07076   0.00156   0.00000   0.00454   0.00454   2.07530
    R5        2.88436   0.00672   0.00000   0.02245   0.02245   2.90681
    R6        2.07303   0.00204   0.00000   0.00597   0.00597   2.07900
    R7        2.07076   0.00156   0.00000   0.00454   0.00454   2.07530
    R8        2.88436   0.00678   0.00000   0.02266   0.02266   2.90702
    R9        2.07303   0.00205   0.00000   0.00600   0.00600   2.07903
   R10        2.07076   0.00156   0.00000   0.00456   0.00456   2.07532
   R11        2.88436   0.00672   0.00000   0.02246   0.02246   2.90682
   R12        2.07303   0.00202   0.00000   0.00591   0.00591   2.07894
   R13        2.07076   0.00156   0.00000   0.00454   0.00454   2.07530
   R14        2.88436   0.00672   0.00000   0.02245   0.02245   2.90681
   R15        2.07076   0.00156   0.00000   0.00454   0.00454   2.07530
   R16        2.07303   0.00204   0.00000   0.00597   0.00597   2.07900
   R17        2.07076   0.00156   0.00000   0.00456   0.00456   2.07532
   R18        2.07303   0.00205   0.00000   0.00600   0.00600   2.07903
    A1        1.94842   0.00024   0.00000   0.00234   0.00233   1.95075
    A2        1.90930  -0.00021   0.00000  -0.00591  -0.00592   1.90338
    A3        1.91418   0.00032   0.00000   0.00943   0.00933   1.92352
    A4        1.90930  -0.00020   0.00000  -0.00554  -0.00555   1.90375
    A5        1.91418   0.00033   0.00000   0.00933   0.00923   1.92341
    A6        1.86664  -0.00051   0.00000  -0.01027  -0.01022   1.85642
    A7        1.94842   0.00016   0.00000   0.00165   0.00164   1.95006
    A8        1.90930  -0.00020   0.00000  -0.00554  -0.00555   1.90375
    A9        1.91418   0.00036   0.00000   0.00948   0.00939   1.92357
   A10        1.90930  -0.00018   0.00000  -0.00537  -0.00538   1.90392
   A11        1.91418   0.00036   0.00000   0.00944   0.00935   1.92353
   A12        1.86664  -0.00053   0.00000  -0.01026  -0.01021   1.85643
   A13        1.94842   0.00024   0.00000   0.00243   0.00242   1.95084
   A14        1.90930  -0.00018   0.00000  -0.00563  -0.00564   1.90366
   A15        1.91418   0.00032   0.00000   0.00945   0.00935   1.92353
   A16        1.90930  -0.00022   0.00000  -0.00582  -0.00583   1.90347
   A17        1.91418   0.00033   0.00000   0.00933   0.00923   1.92342
   A18        1.86664  -0.00052   0.00000  -0.01039  -0.01034   1.85630
   A19        1.94842   0.00024   0.00000   0.00234   0.00233   1.95075
   A20        1.90930  -0.00020   0.00000  -0.00554  -0.00555   1.90375
   A21        1.91418   0.00033   0.00000   0.00933   0.00922   1.92341
   A22        1.90930  -0.00021   0.00000  -0.00591  -0.00591   1.90338
   A23        1.91418   0.00032   0.00000   0.00943   0.00933   1.92352
   A24        1.86664  -0.00051   0.00000  -0.01027  -0.01022   1.85642
   A25        1.94842   0.00016   0.00000   0.00165   0.00164   1.95006
   A26        1.91418   0.00036   0.00000   0.00948   0.00939   1.92357
   A27        1.90930  -0.00020   0.00000  -0.00554  -0.00555   1.90375
   A28        1.91418   0.00036   0.00000   0.00944   0.00935   1.92353
   A29        1.90930  -0.00018   0.00000  -0.00536  -0.00537   1.90392
   A30        1.86664  -0.00053   0.00000  -0.01026  -0.01021   1.85643
   A31        1.94842   0.00024   0.00000   0.00243   0.00242   1.95084
   A32        1.91418   0.00033   0.00000   0.00933   0.00923   1.92342
   A33        1.90930  -0.00022   0.00000  -0.00582  -0.00583   1.90347
   A34        1.91418   0.00032   0.00000   0.00945   0.00935   1.92353
   A35        1.90930  -0.00018   0.00000  -0.00563  -0.00563   1.90366
   A36        1.86664  -0.00052   0.00000  -0.01039  -0.01034   1.85630
    D1       -0.94708   0.00062   0.00000   0.00630   0.00631  -0.94077
    D2        1.16867   0.00036   0.00000  -0.00313  -0.00310   1.16557
    D3       -3.07233  -0.00018   0.00000  -0.01327  -0.01329  -3.08562
    D4        1.16867   0.00038   0.00000  -0.00314  -0.00313   1.16555
    D5       -2.99876   0.00012   0.00000  -0.01257  -0.01254  -3.01131
    D6       -0.95658  -0.00043   0.00000  -0.02271  -0.02273  -0.97930
    D7       -3.07233  -0.00018   0.00000  -0.01355  -0.01357  -3.08590
    D8       -0.95658  -0.00044   0.00000  -0.02297  -0.02298  -0.97956
    D9        1.08561  -0.00098   0.00000  -0.03312  -0.03317   1.05244
   D10        0.94708  -0.00058   0.00000  -0.00587  -0.00589   0.94119
   D11        3.07233   0.00021   0.00000   0.01412   0.01414   3.08647
   D12       -1.16867  -0.00035   0.00000   0.00357   0.00355  -1.16513
   D13       -1.16867  -0.00033   0.00000   0.00379   0.00377  -1.16490
   D14        0.95658   0.00046   0.00000   0.02378   0.02379   0.98037
   D15        2.99876  -0.00010   0.00000   0.01322   0.01320   3.01196
   D16        3.07233   0.00021   0.00000   0.01404   0.01405   3.08638
   D17       -1.08561   0.00100   0.00000   0.03403   0.03408  -1.05153
   D18        0.95658   0.00044   0.00000   0.02347   0.02349   0.98007
   D19        0.94708  -0.00062   0.00000  -0.00625  -0.00626   0.94081
   D20       -1.16867  -0.00037   0.00000   0.00330   0.00328  -1.16539
   D21        3.07233   0.00017   0.00000   0.01368   0.01370   3.08603
   D22       -1.16867  -0.00036   0.00000   0.00327   0.00325  -1.16542
   D23        2.99876  -0.00010   0.00000   0.01282   0.01280   3.01156
   D24        0.95658   0.00044   0.00000   0.02320   0.02321   0.97979
   D25        3.07233   0.00018   0.00000   0.01334   0.01336   3.08569
   D26        0.95658   0.00043   0.00000   0.02289   0.02290   0.97948
   D27       -1.08561   0.00098   0.00000   0.03327   0.03332  -1.05229
   D28       -0.94708   0.00058   0.00000   0.00587   0.00589  -0.94119
   D29        1.16867   0.00033   0.00000  -0.00379  -0.00377   1.16490
   D30       -3.07233  -0.00021   0.00000  -0.01404  -0.01405  -3.08638
   D31        1.16867   0.00035   0.00000  -0.00357  -0.00355   1.16513
   D32       -2.99876   0.00010   0.00000  -0.01322  -0.01320  -3.01196
   D33       -0.95658  -0.00044   0.00000  -0.02347  -0.02349  -0.98007
   D34       -3.07233  -0.00021   0.00000  -0.01412  -0.01414  -3.08647
   D35       -0.95658  -0.00046   0.00000  -0.02378  -0.02379  -0.98037
   D36        1.08560  -0.00100   0.00000  -0.03403  -0.03408   1.05153
   D37        0.94708  -0.00062   0.00000  -0.00630  -0.00631   0.94077
   D38        3.07233   0.00018   0.00000   0.01327   0.01329   3.08562
   D39       -1.16867  -0.00036   0.00000   0.00312   0.00310  -1.16557
   D40       -1.16867  -0.00038   0.00000   0.00314   0.00313  -1.16555
   D41        0.95658   0.00043   0.00000   0.02271   0.02273   0.97931
   D42        2.99876  -0.00012   0.00000   0.01257   0.01254   3.01131
   D43        3.07233   0.00018   0.00000   0.01355   0.01357   3.08590
   D44       -1.08560   0.00098   0.00000   0.03312   0.03317  -1.05244
   D45        0.95658   0.00044   0.00000   0.02297   0.02298   0.97956
   D46       -0.94708   0.00062   0.00000   0.00625   0.00626  -0.94082
   D47       -3.07233  -0.00017   0.00000  -0.01368  -0.01370  -3.08603
   D48        1.16867   0.00037   0.00000  -0.00330  -0.00328   1.16539
   D49       -3.07233  -0.00018   0.00000  -0.01334  -0.01336  -3.08569
   D50        1.08560  -0.00098   0.00000  -0.03327  -0.03332   1.05229
   D51       -0.95658  -0.00043   0.00000  -0.02289  -0.02290  -0.97948
   D52        1.16867   0.00036   0.00000  -0.00327  -0.00325   1.16542
   D53       -0.95658  -0.00044   0.00000  -0.02320  -0.02321  -0.97979
   D54       -2.99876   0.00010   0.00000  -0.01282  -0.01280  -3.01156
         Item               Value     Threshold  Converged?
 Maximum Force            0.006779     0.000450     NO 
 RMS     Force            0.001743     0.000300     NO 
 Maximum Displacement     0.046486     0.001800     NO 
 RMS     Displacement     0.013610     0.001200     NO 
 Predicted change in Energy=-7.504162D-04
 Lowest energy point so far.  Saving SCF results.
 GradGradGradGradGradGradGradGradGradGradGradGradGradGradGradGradGradGrad

 Leave Link  103 at Thu Mar 19 18:08:29 2026, MaxMem=   536870912 cpu:         0.0
 (Enter C:\G09W\l202.exe)
                          Input orientation:                          
 ---------------------------------------------------------------------
 Center     Atomic      Atomic             Coordinates (Angstroms)
 Number     Number       Type             X           Y           Z
 ---------------------------------------------------------------------
      1          6           0       -0.020359   -1.482215   -0.124149
      2          6           0       -1.288482   -0.646661   -0.368786
      3          6           0       -1.258048    0.677149    0.413977
      4          6           0        0.020359    1.482215    0.124149
      5          6           0        1.288482    0.646660    0.368787
      6          6           0        1.258048   -0.677149   -0.413977
      7          1           0       -0.005977   -1.814602    0.924465
      8          1           0       -0.042093   -2.393112   -0.737208
      9          1           0       -1.372732   -0.427240   -1.443543
     10          1           0       -2.182105   -1.225762   -0.100217
     11          1           0       -1.308874    0.459109    1.491131
     12          1           0       -2.146407    1.278070    0.177791
     13          1           0        0.005977    1.814602   -0.924466
     14          1           0        0.042093    2.393112    0.737208
     15          1           0        2.182105    1.225762    0.100219
     16          1           0        1.372731    0.427239    1.443544
     17          1           0        2.146408   -1.278070   -0.177792
     18          1           0        1.308873   -0.459109   -1.491132
 ---------------------------------------------------------------------
                    Distance matrix (angstroms):
                    1          2          3          4          5
     1  C    0.000000
     2  C    1.538224   0.000000
     3  C    2.546430   1.538219   0.000000
     4  C    2.975088   2.547187   1.538329   0.000000
     5  C    2.547187   2.976145   2.547114   1.538224   0.000000
     6  C    1.538329   2.547114   2.974957   2.546430   1.538219
     7  H    1.100127   2.163656   2.834978   3.392669   2.835880
     8  H    1.098202   2.176996   3.497181   3.970389   3.497695
     9  H    2.163951   1.100157   2.164072   2.836261   3.394092
    10  H    2.177036   1.098203   2.177004   3.497760   3.971260
    11  H    2.835161   2.163894   1.100175   2.163850   2.835682
    12  H    3.497202   2.177010   1.098214   2.177023   3.497660
    13  H    3.392668   2.835880   2.164021   1.100127   2.163656
    14  H    3.970389   3.497695   2.177010   1.098202   2.176996
    15  H    3.497760   3.971260   3.497724   2.177036   1.098203
    16  H    2.836261   3.394092   2.836100   2.163952   1.100157
    17  H    2.177024   3.497660   3.970313   3.497202   2.177010
    18  H    2.163850   2.835682   3.392581   2.835161   2.163894
                    6          7          8          9         10
     6  C    0.000000
     7  H    2.164021   0.000000
     8  H    2.177010   1.759868   0.000000
     9  H    2.836100   3.065984   2.476724   0.000000
    10  H    3.497724   2.476336   2.519546   1.759900   0.000000
    11  H    3.392581   2.681122   3.834762   3.066270   2.476634
    12  H    3.970313   3.834526   4.329312   2.476970   2.519472
    13  H    2.834978   4.073059   4.212153   2.682561   3.835479
    14  H    3.497181   4.212153   5.008885   3.835595   4.329502
    15  H    2.177004   3.835479   4.329502   4.213370   5.009638
    16  H    2.164072   2.682560   3.835595   4.074675   4.213368
    17  H    1.098213   2.477014   2.519087   3.835412   4.329524
    18  H    1.100175   3.066154   2.476667   2.682217   3.835274
                   11         12         13         14         15
    11  H    0.000000
    12  H    1.759836   0.000000
    13  H    3.066154   2.477014   0.000000
    14  H    2.476667   2.519087   1.759868   0.000000
    15  H    3.835274   4.329524   2.476337   2.519547   0.000000
    16  H    2.682216   3.835411   3.065984   2.476725   1.759900
    17  H    4.212133   5.008848   3.834525   4.329312   2.519472
    18  H    4.073035   4.212132   2.681121   3.834761   2.476635
                   16         17         18
    16  H    0.000000
    17  H    2.476970   0.000000
    18  H    3.066270   1.759836   0.000000
 Stoichiometry    C6H12
 Framework group  C1[X(C6H12)]
 Deg. of freedom    48
 Full point group                 C1      NOp   1
 RotChk:  IX=0 Diff= 1.10D+00
 Largest Abelian subgroup         C1      NOp   1
 Largest concise Abelian subgroup C1      NOp   1
                         Standard orientation:                         
 ---------------------------------------------------------------------
 Center     Atomic      Atomic             Coordinates (Angstroms)
 Number     Number       Type             X           Y           Z
 ---------------------------------------------------------------------
      1          6           0       -0.804114   -1.230927    0.225848
      2          6           0       -1.468617    0.080772   -0.225833
      3          6           0       -0.664206    1.311656    0.225790
      4          6           0        0.804114    1.230927   -0.225848
      5          6           0        1.468617   -0.080772    0.225833
      6          6           0        0.664206   -1.311656   -0.225791
      7          1           0       -0.846853   -1.295907    1.323222
      8          1           0       -1.366697   -2.092757   -0.157294
      9          1           0       -1.546827    0.084944   -1.323199
     10          1           0       -2.496066    0.137341    0.157830
     11          1           0       -0.699250    1.381149    1.323209
     12          1           0       -1.128900    2.230019   -0.157277
     13          1           0        0.846853    1.295907   -1.323222
     14          1           0        1.366696    2.092757    0.157294
     15          1           0        2.496066   -0.137341   -0.157829
     16          1           0        1.546826   -0.084945    1.323199
     17          1           0        1.128901   -2.230019    0.157277
     18          1           0        0.699250   -1.381148   -1.323210
 ---------------------------------------------------------------------
 Rotational constants (GHZ):      4.2700294      4.2674849      2.4301504
 Leave Link  202 at Thu Mar 19 18:08:30 2026, MaxMem=   536870912 cpu:         1.0
 (Enter C:\G09W\l301.exe)
 Standard basis: 6-31G(d) (6D, 7F)
 Ernie: Thresh=  0.10000D-02 Tol=  0.10000D-05 Strict=F.
 There are   114 symmetry adapted cartesian basis functions of A   symmetry.
 There are   114 symmetry adapted basis functions of A   symmetry.
   114 basis functions,   216 primitive gaussians,   114 cartesian basis functions
    24 alpha electrons       24 beta electrons
       nuclear repulsion energy       254.6039811864 Hartrees.
 IExCor=  402 DFT=T Ex+Corr=B3LYP ExCW=0 ScaHFX=  0.200000
 ScaDFX=  0.800000  0.720000  1.000000  0.810000 ScalE2=  1.000000  1.000000
 IRadAn=      0 IRanWt=     -1 IRanGd=            0 ICorTp=0 IEmpDi=  4
 NAtoms=   18 NActive=   18 NUniq=   18 SFac= 1.00D+00 NAtFMM=   60 NAOKFM=F Big=F
 Integral buffers will be    131072 words long.
 Raffenetti 2 integral format.
 Two-electron integral symmetry is turned on.
 Leave Link  301 at Thu Mar 19 18:08:30 2026, MaxMem=   536870912 cpu:         0.0
 (Enter C:\G09W\l302.exe)
 NPDir=0 NMtPBC=     1 NCelOv=     1 NCel=       1 NClECP=     1 NCelD=      1
         NCelK=      1 NCelE2=     1 NClLst=     1 CellRange=     0.0.
 One-electron integrals computed using PRISM.
 NBasis=   114 RedAO= T EigKep=  5.00D-03  NBF=   114
 NBsUse=   114 1.00D-06 EigRej= -1.00D+00 NBFU=   114
 Precomputing XC quadrature grid using
 IXCGrd= 4 IRadAn=           0 IRanWt=          -1 IRanGd=           0 AccXCQ= 0.00D+00.
 Generated NRdTot=       0 NPtTot=           0 NUsed=           0 NTot=          32
 NSgBfM=   114   114   114   114   114 MxSgAt=    18 MxSgA2=    18.
 Leave Link  302 at Thu Mar 19 18:08:30 2026, MaxMem=   536870912 cpu:         0.0
 (Enter C:\G09W\l303.exe)
 DipDrv:  MaxL=1.
 Leave Link  303 at Thu Mar 19 18:08:30 2026, MaxMem=   536870912 cpu:         0.0
 (Enter C:\G09W\l401.exe)
 Initial guess from the checkpoint file:  "cyclohexane_rdkit.chk"
 B after Tr=     0.000000    0.000000    0.000000
         Rot=    0.921246   -0.074765    0.091278   -0.370655 Ang= -45.78 deg.
 Guess basis will be translated and rotated to current coordinates.
 JPrj=2 DoOrth=T DoCkMO=T.
 Generating alternative initial guess.
 ExpMin= 1.61D-01 ExpMax= 3.05D+03 ExpMxC= 4.57D+02 IAcc=1 IRadAn=         1 AccDes= 0.00D+00
 Harris functional with IExCor=  402 and IRadAn=       1 diagonalized for initial guess.
 HarFok:  IExCor=  402 AccDes= 0.00D+00 IRadAn=         1 IDoV= 1 UseB2=F ITyADJ=14
 ICtDFT=  3500011 ScaDFX=  1.000000  1.000000  1.000000  1.000000
 FoFCou: FMM=F IPFlag=           0 FMFlag=      100000 FMFlg1=           0
         NFxFlg=           0 DoJE=T BraDBF=F KetDBF=T FulRan=T
         wScrn=  0.000000 ICntrl=     500 IOpCl=  0 I1Cent=   200000004 NGrid=           0
         NMat0=    1 NMatS0=      1 NMatT0=    0 NMatD0=    1 NMtDS0=    0 NMtDT0=    0
 Petite list used in FoFCou.
 Harris En= -235.938441602171    
 Leave Link  401 at Thu Mar 19 18:08:31 2026, MaxMem=   536870912 cpu:         0.0
 (Enter C:\G09W\l502.exe)
 Closed shell SCF:
 Using DIIS extrapolation, IDIIS=  1040.
 Integral symmetry usage will be decided dynamically.
 Keep R1 ints in memory in canonical form, NReq=22482632.
 IVT=       59104 IEndB=       59104 NGot=   536870912 MDV=   515324519
 LenX=   515324519 LenY=   515311082
 Requested convergence on RMS density matrix=1.00D-08 within 128 cycles.
 Requested convergence on MAX density matrix=1.00D-06.
 Requested convergence on             energy=1.00D-06.
 No special actions if energy rises.
 FoFCou: FMM=F IPFlag=           0 FMFlag=           0 FMFlg1=           0
         NFxFlg=           0 DoJE=F BraDBF=F KetDBF=F FulRan=T
         wScrn=  0.000000 ICntrl=     600 IOpCl=  0 I1Cent=           0 NGrid=           0
         NMat0=    1 NMatS0=   6555 NMatT0=    0 NMatD0=    1 NMtDS0=    0 NMtDT0=    0
 Symmetry not used in FoFCou.
 Integral accuracy reduced to 1.0D-05 until final iterations.

 Cycle   1  Pass 0  IDiag  1:
 E= -235.880151449590    
 DIIS: error= 1.35D-03 at cycle   1 NSaved=   1.
 NSaved= 1 IEnMin= 1 EnMin= -235.880151449590     IErMin= 1 ErrMin= 1.35D-03
 ErrMax= 1.35D-03  0.00D+00 EMaxC= 1.00D-01 BMatC= 1.53D-04 BMatP= 1.53D-04
 IDIUse=3 WtCom= 9.87D-01 WtEn= 1.35D-02
 Coeff-Com:  0.100D+01
 Coeff-En:   0.100D+01
 Coeff:      0.100D+01
 Gap=     1.735 Goal=   None    Shift=    0.000
 GapD=    1.735 DampG=2.000 DampE=1.000 DampFc=2.0000 IDamp=-1.
 RMSDP=1.55D-04 MaxDP=1.51D-03              OVMax= 4.08D-03

 Cycle   2  Pass 0  IDiag  1:
 E= -235.880349160512     Delta-E=       -0.000197710921 Rises=F Damp=F
 DIIS: error= 4.30D-04 at cycle   2 NSaved=   2.
 NSaved= 2 IEnMin= 2 EnMin= -235.880349160512     IErMin= 2 ErrMin= 4.30D-04
 ErrMax= 4.30D-04  0.00D+00 EMaxC= 1.00D-01 BMatC= 2.98D-05 BMatP= 1.53D-04
 IDIUse=3 WtCom= 9.96D-01 WtEn= 4.30D-03
 Coeff-Com:  0.221D+00 0.779D+00
 Coeff-En:   0.000D+00 0.100D+01
 Coeff:      0.220D+00 0.780D+00
 Gap=     0.380 Goal=   None    Shift=    0.000
 RMSDP=8.62D-05 MaxDP=1.13D-03 DE=-1.98D-04 OVMax= 1.63D-03

 Cycle   3  Pass 0  IDiag  1:
 E= -235.880359779222     Delta-E=       -0.000010618711 Rises=F Damp=F
 DIIS: error= 3.50D-04 at cycle   3 NSaved=   3.
 NSaved= 3 IEnMin= 3 EnMin= -235.880359779222     IErMin= 3 ErrMin= 3.50D-04
 ErrMax= 3.50D-04  0.00D+00 EMaxC= 1.00D-01 BMatC= 1.92D-05 BMatP= 2.98D-05
 IDIUse=3 WtCom= 9.96D-01 WtEn= 3.50D-03
 Coeff-Com: -0.219D-01 0.446D+00 0.576D+00
 Coeff-En:   0.000D+00 0.404D+00 0.596D+00
 Coeff:     -0.218D-01 0.445D+00 0.576D+00
 Gap=     0.379 Goal=   None    Shift=    0.000
 RMSDP=4.23D-05 MaxDP=5.56D-04 DE=-1.06D-05 OVMax= 8.44D-04

 Cycle   4  Pass 0  IDiag  1:
 E= -235.880379613292     Delta-E=       -0.000019834070 Rises=F Damp=F
 DIIS: error= 1.75D-05 at cycle   4 NSaved=   4.
 NSaved= 4 IEnMin= 4 EnMin= -235.880379613292     IErMin= 4 ErrMin= 1.75D-05
 ErrMax= 1.75D-05  0.00D+00 EMaxC= 1.00D-01 BMatC= 2.90D-08 BMatP= 1.92D-05
 IDIUse=1 WtCom= 1.00D+00 WtEn= 0.00D+00
 Coeff-Com: -0.641D-02 0.639D-01 0.106D+00 0.836D+00
 Coeff:     -0.641D-02 0.639D-01 0.106D+00 0.836D+00
 Gap=     0.379 Goal=   None    Shift=    0.000
 RMSDP=2.34D-06 MaxDP=1.74D-05 DE=-1.98D-05 OVMax= 4.07D-05

 Initial convergence to 1.0D-05 achieved.  Increase integral accuracy.
 Cycle   5  Pass 1  IDiag  1:
 E= -235.880430755026     Delta-E=       -0.000051141733 Rises=F Damp=F
 DIIS: error= 1.26D-05 at cycle   1 NSaved=   1.
 NSaved= 1 IEnMin= 1 EnMin= -235.880430755026     IErMin= 1 ErrMin= 1.26D-05
 ErrMax= 1.26D-05  0.00D+00 EMaxC= 1.00D-01 BMatC= 1.96D-08 BMatP= 1.96D-08
 IDIUse=1 WtCom= 1.00D+00 WtEn= 0.00D+00
 Coeff-Com:  0.100D+01
 Coeff:      0.100D+01
 Gap=     0.379 Goal=   None    Shift=    0.000
 RMSDP=2.34D-06 MaxDP=1.74D-05 DE=-5.11D-05 OVMax= 4.72D-05

 Cycle   6  Pass 1  IDiag  1:
 E= -235.880430782936     Delta-E=       -0.000000027910 Rises=F Damp=F
 DIIS: error= 1.76D-06 at cycle   2 NSaved=   2.
 NSaved= 2 IEnMin= 2 EnMin= -235.880430782936     IErMin= 2 ErrMin= 1.76D-06
 ErrMax= 1.76D-06  0.00D+00 EMaxC= 1.00D-01 BMatC= 4.31D-10 BMatP= 1.96D-08
 IDIUse=1 WtCom= 1.00D+00 WtEn= 0.00D+00
 Coeff-Com:  0.792D-02 0.992D+00
 Coeff:      0.792D-02 0.992D+00
 Gap=     0.379 Goal=   None    Shift=    0.000
 RMSDP=4.11D-07 MaxDP=6.29D-06 DE=-2.79D-08 OVMax= 7.36D-06

 Cycle   7  Pass 1  IDiag  1:
 E= -235.880430783202     Delta-E=       -0.000000000267 Rises=F Damp=F
 DIIS: error= 1.52D-06 at cycle   3 NSaved=   3.
 NSaved= 3 IEnMin= 3 EnMin= -235.880430783202     IErMin= 3 ErrMin= 1.52D-06
 ErrMax= 1.52D-06  0.00D+00 EMaxC= 1.00D-01 BMatC= 2.37D-10 BMatP= 4.31D-10
 IDIUse=1 WtCom= 1.00D+00 WtEn= 0.00D+00
 Coeff-Com: -0.131D-01 0.421D+00 0.592D+00
 Coeff:     -0.131D-01 0.421D+00 0.592D+00
 Gap=     0.379 Goal=   None    Shift=    0.000
 RMSDP=1.72D-07 MaxDP=2.88D-06 DE=-2.67D-10 OVMax= 3.46D-06

 Cycle   8  Pass 1  IDiag  1:
 E= -235.880430783429     Delta-E=       -0.000000000226 Rises=F Damp=F
 DIIS: error= 4.16D-07 at cycle   4 NSaved=   4.
 NSaved= 4 IEnMin= 4 EnMin= -235.880430783429     IErMin= 4 ErrMin= 4.16D-07
 ErrMax= 4.16D-07  0.00D+00 EMaxC= 1.00D-01 BMatC= 2.42D-11 BMatP= 2.37D-10
 IDIUse=1 WtCom= 1.00D+00 WtEn= 0.00D+00
 Coeff-Com: -0.807D-02 0.140D+00 0.292D+00 0.576D+00
 Coeff:     -0.807D-02 0.140D+00 0.292D+00 0.576D+00
 Gap=     0.379 Goal=   None    Shift=    0.000
 RMSDP=5.09D-08 MaxDP=6.20D-07 DE=-2.26D-10 OVMax= 1.03D-06

 Cycle   9  Pass 1  IDiag  1:
 E= -235.880430783438     Delta-E=       -0.000000000009 Rises=F Damp=F
 DIIS: error= 5.42D-08 at cycle   5 NSaved=   5.
 NSaved= 5 IEnMin= 5 EnMin= -235.880430783438     IErMin= 5 ErrMin= 5.42D-08
 ErrMax= 5.42D-08  0.00D+00 EMaxC= 1.00D-01 BMatC= 2.69D-13 BMatP= 2.42D-11
 IDIUse=1 WtCom= 1.00D+00 WtEn= 0.00D+00
 Coeff-Com: -0.638D-03 0.456D-02 0.234D-01 0.124D+00 0.849D+00
 Coeff:     -0.638D-03 0.456D-02 0.234D-01 0.124D+00 0.849D+00
 Gap=     0.379 Goal=   None    Shift=    0.000
 RMSDP=6.88D-09 MaxDP=6.65D-08 DE=-9.49D-12 OVMax= 1.21D-07

 SCF Done:  E(RB3LYP) =  -235.880430783     A.U. after    9 cycles
            NFock=  9  Conv=0.69D-08     -V/T= 2.0104
 KE= 2.334520661163D+02 PE=-1.053864831440D+03 EE= 3.299283533539D+02
 Leave Link  502 at Thu Mar 19 18:08:42 2026, MaxMem=   536870912 cpu:        10.0
 (Enter C:\G09W\l701.exe)
 Compute integral first derivatives.
 ... and contract with generalized density number  0.
 Leave Link  701 at Thu Mar 19 18:08:42 2026, MaxMem=   536870912 cpu:         0.0
 (Enter C:\G09W\l702.exe)
 L702 exits ... SP integral derivatives will be done elsewhere.
 Leave Link  702 at Thu Mar 19 18:08:43 2026, MaxMem=   536870912 cpu:         0.0
 (Enter C:\G09W\l703.exe)
 Compute integral first derivatives, UseDBF=F ICtDFT=           0.
 Integral derivatives from FoFJK, PRISM(SPDF).
 Calling FoFJK, ICntrl=      2127 FMM=F ISym2X=0 I1Cent= 0 IOpClX= 0 NMat=1 NMatS=1 NMatT=0.
 FoFJK:  IHMeth= 1 ICntrl=    2127 DoSepK=F KAlg= 0 I1Cent=   0 FoldK=F
 IRaf=         0 NMat=   1 IRICut=       1 DoRegI=T DoRafI=F ISym2E= 0.
 FoFCou: FMM=F IPFlag=           0 FMFlag=      100000 FMFlg1=         800
         NFxFlg=           0 DoJE=F BraDBF=F KetDBF=F FulRan=T
         wScrn=  0.000000 ICntrl=    2127 IOpCl=  0 I1Cent=           0 NGrid=           0
         NMat0=    1 NMatS0=      1 NMatT0=    0 NMatD0=    1 NMtDS0=    0 NMtDT0=    0
 Symmetry not used in FoFCou.
 Leave Link  703 at Thu Mar 19 18:08:46 2026, MaxMem=   536870912 cpu:         3.0
 (Enter C:\G09W\l716.exe)
 Dipole        =-4.41939401D-08 2.19398362D-08 3.22046079D-09
 ***** Axes restored to original set *****
 -------------------------------------------------------------------
 Center     Atomic                   Forces (Hartrees/Bohr)
 Number     Number              X              Y              Z
 -------------------------------------------------------------------
      1        6           0.000064379    0.000262120    0.000456195
      2        6           0.000425081    0.000335733   -0.000396255
      3        6           0.000462787   -0.000233839    0.000428497
      4        6          -0.000064308   -0.000262094   -0.000456275
      5        6          -0.000425115   -0.000335872    0.000396301
      6        6          -0.000462869    0.000233943   -0.000428387
      7        1           0.000005913    0.000081100    0.000284896
      8        1           0.000015993    0.000319109    0.000129959
      9        1           0.000126361    0.000121347   -0.000197124
     10        1           0.000291127    0.000175422   -0.000018451
     11        1           0.000128173   -0.000139902    0.000177631
     12        1           0.000304736   -0.000171735    0.000002541
     13        1          -0.000005926   -0.000081111   -0.000284865
     14        1          -0.000015990   -0.000319105   -0.000129938
     15        1          -0.000291103   -0.000175395    0.000018424
     16        1          -0.000126366   -0.000121311    0.000197073
     17        1          -0.000304721    0.000171711   -0.000002567
     18        1          -0.000128153    0.000139879   -0.000177656
 -------------------------------------------------------------------
 Cartesian Forces:  Max     0.000462869 RMS     0.000255750
 Leave Link  716 at Thu Mar 19 18:08:46 2026, MaxMem=   536870912 cpu:         0.0
 (Enter C:\G09W\l103.exe)

 GradGradGradGradGradGradGradGradGradGradGradGradGradGradGradGradGradGrad
 Berny optimization.
 Using GEDIIS/GDIIS optimizer.
 FormGI is forming the generalized inverse of G from B-inverse, IUseBI=4.
 Internal  Forces:  Max     0.000870963 RMS     0.000234411
 Search for a local minimum.
 Step number   2 out of a maximum of  108
 All quantities printed in internal units (Hartrees-Bohrs-Radians)
 RMS Force = .23441D-03 SwitMx=.10000D-02 MixMth= 2
 Mixed Optimization -- En-DIIS/RFO-DIIS
 Update second derivatives using D2CorX and points    1    2
 DE= -6.98D-04 DEPred=-7.50D-04 R= 9.30D-01
 TightC=F SS=  1.41D+00  RLast= 1.49D-01 DXNew= 5.0454D-01 4.4759D-01
 Trust test= 9.30D-01 RLast= 1.49D-01 DXMaxT set to 4.48D-01
 ITU=  1  0
 Use linear search instead of GDIIS.
     Eigenvalues ---    0.00594   0.00594   0.00647   0.01937   0.01939
     Eigenvalues ---    0.03636   0.03894   0.03897   0.04615   0.04846
     Eigenvalues ---    0.04848   0.04890   0.05536   0.05537   0.05931
     Eigenvalues ---    0.06170   0.08116   0.08121   0.08225   0.08228
     Eigenvalues ---    0.08230   0.08235   0.08276   0.08281   0.12122
     Eigenvalues ---    0.12150   0.12153   0.16188   0.16194   0.21878
     Eigenvalues ---    0.28262   0.28445   0.28446   0.29750   0.29764
     Eigenvalues ---    0.31669   0.33642   0.34016   0.34016   0.34016
     Eigenvalues ---    0.34016   0.34017   0.34151   0.34151   0.34151
     Eigenvalues ---    0.34151   0.34151   0.34910
 RFO step:  Lambda=-6.51487594D-05 EMin= 5.93581809D-03
 Quartic linear search produced a step of -0.07485.
 Iteration  1 RMS(Cart)=  0.00704262 RMS(Int)=  0.00002462
 Iteration  2 RMS(Cart)=  0.00002642 RMS(Int)=  0.00001231
 Iteration  3 RMS(Cart)=  0.00000000 RMS(Int)=  0.00001231
 ITry= 1 IFail=0 DXMaxC= 1.85D-02 DCOld= 1.00D+10 DXMaxT= 4.48D-01 DXLimC= 3.00D+00 Rises=F
 Variable       Old X    -DE/DX   Delta X   Delta X   Delta X     New X
                                 (Linear)    (Quad)   (Total)
    R1        2.90682  -0.00077  -0.00168   0.00010  -0.00158   2.90524
    R2        2.90702  -0.00087  -0.00170  -0.00020  -0.00190   2.90512
    R3        2.07894   0.00025  -0.00044   0.00134   0.00089   2.07983
    R4        2.07530  -0.00034  -0.00034  -0.00042  -0.00076   2.07454
    R5        2.90681  -0.00071  -0.00168   0.00028  -0.00140   2.90541
    R6        2.07900   0.00020  -0.00045   0.00121   0.00077   2.07976
    R7        2.07530  -0.00033  -0.00034  -0.00040  -0.00074   2.07456
    R8        2.90702  -0.00087  -0.00170  -0.00020  -0.00190   2.90512
    R9        2.07903   0.00019  -0.00045   0.00118   0.00074   2.07977
   R10        2.07532  -0.00034  -0.00034  -0.00042  -0.00076   2.07456
   R11        2.90682  -0.00077  -0.00168   0.00010  -0.00158   2.90524
   R12        2.07894   0.00025  -0.00044   0.00134   0.00089   2.07983
   R13        2.07530  -0.00034  -0.00034  -0.00042  -0.00076   2.07454
   R14        2.90681  -0.00071  -0.00168   0.00028  -0.00140   2.90541
   R15        2.07530  -0.00033  -0.00034  -0.00040  -0.00074   2.07456
   R16        2.07900   0.00020  -0.00045   0.00121   0.00077   2.07976
   R17        2.07532  -0.00034  -0.00034  -0.00042  -0.00076   2.07456
   R18        2.07903   0.00019  -0.00045   0.00118   0.00074   2.07977
    A1        1.95075  -0.00015  -0.00017  -0.00437  -0.00458   1.94617
    A2        1.90338   0.00010   0.00044   0.00060   0.00105   1.90443
    A3        1.92352  -0.00002  -0.00070   0.00151   0.00083   1.92435
    A4        1.90375   0.00010   0.00042   0.00060   0.00103   1.90478
    A5        1.92341  -0.00005  -0.00069   0.00127   0.00059   1.92400
    A6        1.85642   0.00004   0.00076   0.00063   0.00139   1.85780
    A7        1.95006  -0.00005  -0.00012  -0.00374  -0.00390   1.94616
    A8        1.90375   0.00009   0.00042   0.00052   0.00095   1.90470
    A9        1.92357  -0.00009  -0.00070   0.00111   0.00042   1.92399
   A10        1.90392   0.00008   0.00040   0.00066   0.00107   1.90499
   A11        1.92353  -0.00007  -0.00070   0.00114   0.00046   1.92400
   A12        1.85643   0.00005   0.00076   0.00052   0.00127   1.85770
   A13        1.95084  -0.00009  -0.00018  -0.00391  -0.00413   1.94671
   A14        1.90366   0.00007   0.00042   0.00051   0.00094   1.90460
   A15        1.92353  -0.00005  -0.00070   0.00119   0.00051   1.92404
   A16        1.90347   0.00012   0.00044   0.00072   0.00117   1.90464
   A17        1.92342  -0.00009  -0.00069   0.00108   0.00041   1.92383
   A18        1.85630   0.00005   0.00077   0.00063   0.00139   1.85769
   A19        1.95075  -0.00015  -0.00017  -0.00437  -0.00458   1.94617
   A20        1.90375   0.00010   0.00042   0.00060   0.00103   1.90478
   A21        1.92341  -0.00005  -0.00069   0.00127   0.00059   1.92400
   A22        1.90338   0.00010   0.00044   0.00060   0.00105   1.90443
   A23        1.92352  -0.00002  -0.00070   0.00151   0.00083   1.92435
   A24        1.85642   0.00004   0.00076   0.00063   0.00139   1.85780
[...]
 ! D29   D(2,3,4,13)            65.9279         -DE/DX =    0.0                 !
 ! D30   D(2,3,4,14)          -177.485          -DE/DX =    0.0                 !
 ! D31   D(11,3,4,5)            65.8901         -DE/DX =    0.0                 !
 ! D32   D(11,3,4,13)         -173.5149         -DE/DX =    0.0                 !
 ! D33   D(11,3,4,14)          -56.9278         -DE/DX =    0.0                 !
 ! D34   D(12,3,4,5)          -177.5266         -DE/DX =    0.0                 !
 ! D35   D(12,3,4,13)          -56.9316         -DE/DX =    0.0                 !
 ! D36   D(12,3,4,14)           59.6555         -DE/DX =    0.0                 !
 ! D37   D(3,4,5,6)             54.6581         -DE/DX =    0.0                 !
 ! D38   D(3,4,5,15)           177.4806         -DE/DX =    0.0                 !
 ! D39   D(3,4,5,16)           -65.9249         -DE/DX =    0.0                 !
 ! D40   D(13,4,5,6)           -65.935          -DE/DX =    0.0                 !
 ! D41   D(13,4,5,15)           56.8875         -DE/DX =    0.0                 !
 ! D42   D(13,4,5,16)          173.482          -DE/DX =    0.0                 !
 ! D43   D(14,4,5,6)           177.4822         -DE/DX =    0.0                 !
 ! D44   D(14,4,5,15)          -59.6953         -DE/DX =    0.0                 !
 ! D45   D(14,4,5,16)           56.8992         -DE/DX =    0.0                 !
 ! D46   D(4,5,6,1)            -54.6735         -DE/DX =    0.0                 !
 ! D47   D(4,5,6,17)          -177.5158         -DE/DX =    0.0                 !
 ! D48   D(4,5,6,18)            65.8912         -DE/DX =    0.0                 !
 ! D49   D(15,5,6,1)          -177.513          -DE/DX =    0.0                 !
 ! D50   D(15,5,6,17)           59.6446         -DE/DX =    0.0                 !
 ! D51   D(15,5,6,18)          -56.9484         -DE/DX =    0.0                 !
 ! D52   D(16,5,6,1)            65.9137         -DE/DX =    0.0                 !
 ! D53   D(16,5,6,17)          -56.9287         -DE/DX =    0.0                 !
 ! D54   D(16,5,6,18)         -173.5217         -DE/DX =    0.0                 !
 --------------------------------------------------------------------------------
 Lowest energy point so far.  Saving SCF results.
 GradGradGradGradGradGradGradGradGradGradGradGradGradGradGradGradGradGrad

 Largest change from initial coordinates is atom   14       0.426 Angstoms.
 Leave Link  103 at Thu Mar 19 18:09:17 2026, MaxMem=   536870912 cpu:         0.0
 (Enter C:\G09W\l202.exe)
                          Input orientation:                          
 ---------------------------------------------------------------------
 Center     Atomic      Atomic             Coordinates (Angstroms)
 Number     Number       Type             X           Y           Z
 ---------------------------------------------------------------------
      1          6           0       -0.020122   -1.480118   -0.119771
      2          6           0       -1.285159   -0.644318   -0.371755
      3          6           0       -1.255013    0.674858    0.416903
      4          6           0        0.020122    1.480118    0.119771
      5          6           0        1.285159    0.644318    0.371755
      6          6           0        1.255013   -0.674858   -0.416903
      7          1           0       -0.005294   -1.803435    0.931960
      8          1           0       -0.042029   -2.395006   -0.726028
      9          1           0       -1.360608   -0.419867   -1.446421
     10          1           0       -2.181230   -1.222368   -0.111145
     11          1           0       -1.297058    0.451441    1.493570
     12          1           0       -2.145336    1.275106    0.188664
     13          1           0        0.005294    1.803434   -0.931960
     14          1           0        0.042029    2.395005    0.726028
     15          1           0        2.181230    1.222368    0.111145
     16          1           0        1.360607    0.419867    1.446421
     17          1           0        2.145336   -1.275106   -0.188664
     18          1           0        1.297058   -0.451441   -1.493570
 ---------------------------------------------------------------------
                    Distance matrix (angstroms):
                    1          2          3          4          5
     1  C    0.000000
     2  C    1.537002   0.000000
     3  C    2.541043   1.537244   0.000000
     4  C    2.970184   2.541374   1.537107   0.000000
     5  C    2.541374   2.969836   2.540757   1.537002   0.000000
     6  C    1.537107   2.540757   2.969377   2.541043   1.537244
     7  H    1.100406   2.163627   2.822945   3.382604   2.823224
     8  H    1.097746   2.176186   3.493091   3.966840   3.493429
     9  H    2.163570   1.100444   2.163689   2.822997   3.382061
    10  H    2.176442   1.097726   2.176276   3.493236   3.966555
    11  H    2.822119   2.163393   1.100407   2.163437   2.821970
    12  H    3.493269   2.176733   1.097755   2.176232   3.492809
    13  H    3.382604   2.823224   2.163675   1.100406   2.163627
    14  H    3.966840   3.493429   2.176415   1.097746   2.176186
    15  H    3.493236   3.966555   3.492996   2.176442   1.097726
    16  H    2.822997   3.382061   2.822481   2.163570   1.100444
    17  H    2.176232   3.492809   3.966289   3.493269   2.176733
    18  H    2.163437   2.821970   3.381054   2.822119   2.163393
                    6          7          8          9         10
     6  C    0.000000
     7  H    2.163675   0.000000
     8  H    2.176415   1.760747   0.000000
     9  H    2.822481   3.067219   2.481691   0.000000
    10  H    3.492996   2.482016   2.515818   1.760793   0.000000
    11  H    3.381054   2.658669   3.821514   3.067045   2.481633
    12  H    3.966289   3.822261   4.327850   2.482385   2.515661
    13  H    2.822945   4.060026   4.203754   2.659591   3.822317
    14  H    3.493091   4.203754   5.005970   3.822359   4.327716
    15  H    2.176276   3.822317   4.327716   4.203279   5.005717
    16  H    2.163689   2.659591   3.822359   4.059396   4.203279
    17  H    1.097755   2.481963   2.515453   3.821653   4.327582
    18  H    1.100407   3.067117   2.481878   2.658271   3.821507
                   11         12         13         14         15
    11  H    0.000000
    12  H    1.760903   0.000000
    13  H    3.067117   2.481963   0.000000
    14  H    2.481878   2.515453   1.760747   0.000000
    15  H    3.821507   4.327582   2.482016   2.515818   0.000000
    16  H    2.658271   3.821653   3.067219   2.481691   1.760793
    17  H    4.202494   5.005580   3.822261   4.327850   2.515661
    18  H    4.058034   4.202494   2.658669   3.821514   2.481633
                   16         17         18
    16  H    0.000000
    17  H    2.482385   0.000000
    18  H    3.067045   1.760903   0.000000
 Stoichiometry    C6H12
 Framework group  C1[X(C6H12)]
 Deg. of freedom    48
 Full point group                 C1      NOp   1
 RotChk:  IX=2 Diff= 1.51D-12
 Largest Abelian subgroup         C1      NOp   1
 Largest concise Abelian subgroup C1      NOp   1
                         Standard orientation:                         
 ---------------------------------------------------------------------
 Center     Atomic      Atomic             Coordinates (Angstroms)
 Number     Number       Type             X           Y           Z
 ---------------------------------------------------------------------
      1          6           0       -1.414314   -0.390657    0.229351
      2          6           0       -1.045535    1.029193   -0.229351
      3          6           0        0.368737    1.419765    0.229348
      4          6           0        1.414314    0.390657   -0.229351
      5          6           0        1.045535   -1.029193    0.229351
      6          6           0       -0.368737   -1.419765   -0.229348
      7          1           0       -1.480256   -0.408902    1.327627
      8          1           0       -2.408506   -0.665275   -0.146434
      9          1           0       -1.094046    1.077031   -1.327684
     10          1           0       -1.780237    1.753192    0.146202
     11          1           0        0.385571    1.485092    1.327685
     12          1           0        0.628287    2.418256   -0.145771
     13          1           0        1.480256    0.408902   -1.327627
     14          1           0        2.408506    0.665275    0.146434
     15          1           0        1.780237   -1.753192   -0.146202
     16          1           0        1.094045   -1.077031    1.327684
     17          1           0       -0.628287   -2.418256    0.145771
     18          1           0       -0.385571   -1.485091   -1.327685
 ---------------------------------------------------------------------
 Rotational constants (GHZ):      4.2816740      4.2797522      2.4418179
 Leave Link  202 at Thu Mar 19 18:09:17 2026, MaxMem=   536870912 cpu:         0.0
 (Enter C:\G09W\l601.exe)
 Copying SCF densities to generalized density rwf, IOpCl= 0 IROHF=0.

 **********************************************************************

            Population analysis using the SCF density.

 **********************************************************************

 Orbital symmetries:
       Occupied  (A) (A) (A) (A) (A) (A) (A) (A) (A) (A) (A) (A)
                 (A) (A) (A) (A) (A) (A) (A) (A) (A) (A) (A) (A)
       Virtual   (A) (A) (A) (A) (A) (A) (A) (A) (A) (A) (A) (A)
                 (A) (A) (A) (A) (A) (A) (A) (A) (A) (A) (A) (A)
                 (A) (A) (A) (A) (A) (A) (A) (A) (A) (A) (A) (A)
                 (A) (A) (A) (A) (A) (A) (A) (A) (A) (A) (A) (A)
                 (A) (A) (A) (A) (A) (A) (A) (A) (A) (A) (A) (A)
                 (A) (A) (A) (A) (A) (A) (A) (A) (A) (A) (A) (A)
                 (A) (A) (A) (A) (A) (A) (A) (A) (A) (A) (A) (A)
                 (A) (A) (A) (A) (A) (A)
 The electronic state is 1-A.
 Alpha  occ. eigenvalues --  -10.17361 -10.17351 -10.17351 -10.17331 -10.17330
 Alpha  occ. eigenvalues --  -10.17319  -0.81945  -0.73142  -0.73135  -0.59913
 Alpha  occ. eigenvalues --   -0.59912  -0.54296  -0.47084  -0.43494  -0.42799
 Alpha  occ. eigenvalues --   -0.42795  -0.37063  -0.37056  -0.36320  -0.33486
 Alpha  occ. eigenvalues --   -0.33480  -0.30981  -0.29196  -0.29195
 Alpha virt. eigenvalues --    0.08772   0.11313   0.13623   0.13626   0.16521
 Alpha virt. eigenvalues --    0.17407   0.17409   0.17451   0.18668   0.18679
 Alpha virt. eigenvalues --    0.18857   0.18858   0.24117   0.24125   0.25481
 Alpha virt. eigenvalues --    0.27950   0.27952   0.29346   0.52126   0.52269
 Alpha virt. eigenvalues --    0.54542   0.54762   0.54766   0.58919   0.58922
 Alpha virt. eigenvalues --    0.64304   0.64315   0.67297   0.72409   0.72412
 Alpha virt. eigenvalues --    0.75038   0.75566   0.83324   0.83342   0.86473
 Alpha virt. eigenvalues --    0.86477   0.86607   0.89161   0.90594   0.90615
 Alpha virt. eigenvalues --    0.92982   0.92984   0.96638   0.97770   0.97772
 Alpha virt. eigenvalues --    1.00618   1.02054   1.16687   1.16698   1.37292
 Alpha virt. eigenvalues --    1.37326   1.40219   1.40246   1.54856   1.57856
 Alpha virt. eigenvalues --    1.69588   1.69589   1.73305   1.73675   1.88896
 Alpha virt. eigenvalues --    1.88921   1.90961   1.90999   1.98748   1.98761
 Alpha virt. eigenvalues --    2.01731   2.03037   2.08727   2.14393   2.14404
 Alpha virt. eigenvalues --    2.27571   2.27589   2.36024   2.36036   2.38853
 Alpha virt. eigenvalues --    2.39142   2.39180   2.39766   2.60878   2.60887
 Alpha virt. eigenvalues --    2.67323   2.70207   2.70224   2.77950   4.12706
 Alpha virt. eigenvalues --    4.25613   4.25622   4.54885   4.55065   4.55069
          Condensed to atoms (all electrons):
               1          2          3          4          5          6
     1  C    4.991131   0.385774  -0.042654  -0.013698  -0.042669   0.385753
     2  C    0.385774   4.991406   0.385764  -0.042669  -0.013695  -0.042716
     3  C   -0.042654   0.385764   4.991229   0.385753  -0.042716  -0.013714
     4  C   -0.013698  -0.042669   0.385753   4.991131   0.385774  -0.042654
     5  C   -0.042669  -0.013695  -0.042716   0.385774   4.991406   0.385764
     6  C    0.385753  -0.042716  -0.013714  -0.042654   0.385764   4.991229
     7  H    0.371296  -0.041296  -0.004868  -0.000765  -0.004861  -0.041304
     8  H    0.368924  -0.033107   0.004756   0.000111   0.004752  -0.033085
     9  H   -0.041307   0.371304  -0.041322  -0.004854  -0.000768  -0.004867
    10  H   -0.033083   0.368915  -0.033091   0.004753   0.000111   0.004757
    11  H   -0.004861  -0.041347   0.371286  -0.041325  -0.004864  -0.000773
    12  H    0.004752  -0.033070   0.368907  -0.033116   0.004757   0.000112
    13  H   -0.000765  -0.004861  -0.041304   0.371296  -0.041296  -0.004868
    14  H    0.000111   0.004752  -0.033085   0.368924  -0.033107   0.004756
    15  H    0.004753   0.000111   0.004757  -0.033083   0.368915  -0.033091
    16  H   -0.004854  -0.000768  -0.004867  -0.041307   0.371304  -0.041322
    17  H   -0.033116   0.004757   0.000112   0.004752  -0.033070   0.368907
    18  H   -0.041325  -0.004864  -0.000773  -0.004861  -0.041347   0.371286
               7          8          9         10         11         12
     1  C    0.371296   0.368924  -0.041307  -0.033083  -0.004861   0.004752
     2  C   -0.041296  -0.033107   0.371304   0.368915  -0.041347  -0.033070
     3  C   -0.004868   0.004756  -0.041322  -0.033091   0.371286   0.368907
     4  C   -0.000765   0.000111  -0.004854   0.004753  -0.041325  -0.033116
     5  C   -0.004861   0.004752  -0.000768   0.000111  -0.004864   0.004757
     6  C   -0.041304  -0.033085  -0.004867   0.004757  -0.000773   0.000112
     7  H    0.619463  -0.037660   0.006134  -0.004349   0.005146  -0.000052
     8  H   -0.037660   0.610990  -0.004356  -0.002338  -0.000052  -0.000162
     9  H    0.006134  -0.004356   0.619455  -0.037640   0.006136  -0.004341
    10  H   -0.004349  -0.002338  -0.037640   0.610937  -0.004348  -0.002343
    11  H    0.005146  -0.000052   0.006136  -0.004348   0.619525  -0.037631
    12  H   -0.000052  -0.000162  -0.004341  -0.002343  -0.037631   0.610973
    13  H    0.000177  -0.000033   0.005138  -0.000052   0.006135  -0.004344
    14  H   -0.000033   0.000012  -0.000052  -0.000162  -0.004351  -0.002339
    15  H   -0.000052  -0.000162  -0.000033   0.000012  -0.000052  -0.000162
    16  H    0.005138  -0.000052   0.000177  -0.000033   0.005150  -0.000052
    17  H   -0.004344  -0.002339  -0.000052  -0.000162  -0.000033   0.000012
    18  H    0.006135  -0.004351   0.005150  -0.000052   0.000178  -0.000033
              13         14         15         16         17         18
     1  C   -0.000765   0.000111   0.004753  -0.004854  -0.033116  -0.041325
     2  C   -0.004861   0.004752   0.000111  -0.000768   0.004757  -0.004864
     3  C   -0.041304  -0.033085   0.004757  -0.004867   0.000112  -0.000773
     4  C    0.371296   0.368924  -0.033083  -0.041307   0.004752  -0.004861
     5  C   -0.041296  -0.033107   0.368915   0.371304  -0.033070  -0.041347
     6  C   -0.004868   0.004756  -0.033091  -0.041322   0.368907   0.371286
     7  H    0.000177  -0.000033  -0.000052   0.005138  -0.004344   0.006135
     8  H   -0.000033   0.000012  -0.000162  -0.000052  -0.002339  -0.004351
     9  H    0.005138  -0.000052  -0.000033   0.000177  -0.000052   0.005150
    10  H   -0.000052  -0.000162   0.000012  -0.000033  -0.000162  -0.000052
    11  H    0.006135  -0.004351  -0.000052   0.005150  -0.000033   0.000178
    12  H   -0.004344  -0.002339  -0.000162  -0.000052   0.000012  -0.000033
    13  H    0.619463  -0.037660  -0.004349   0.006134  -0.000052   0.005146
    14  H   -0.037660   0.610990  -0.002338  -0.004356  -0.000162  -0.000052
    15  H   -0.004349  -0.002338   0.610937  -0.037640  -0.002343  -0.004348
    16  H    0.006134  -0.004356  -0.037640   0.619455  -0.004341   0.006136
    17  H   -0.000052  -0.000162  -0.002343  -0.004341   0.610973  -0.037631
    18  H    0.005146  -0.000052  -0.004348   0.006136  -0.037631   0.619525
 Mulliken charges:
               1
     1  C   -0.254162
     2  C   -0.254391
     3  C   -0.254171
     4  C   -0.254162
     5  C   -0.254391
     6  C   -0.254171
     7  H    0.126096
     8  H    0.128153
     9  H    0.126098
    10  H    0.128166
    11  H    0.126081
    12  H    0.128131
    13  H    0.126096
    14  H    0.128153
    15  H    0.128166
    16  H    0.126098
    17  H    0.128131
    18  H    0.126081
 Sum of Mulliken charges =   0.00000
 Mulliken charges with hydrogens summed into heavy atoms:
               1
     1  C    0.000086
     2  C   -0.000127
     3  C    0.000041
     4  C    0.000086
     5  C   -0.000127
     6  C    0.000041
 Electronic spatial extent (au):  <R**2>=            594.8322
 Charge=              0.0000 electrons
 Dipole moment (field-independent basis, Debye):
    X=              0.0000    Y=              0.0000    Z=              0.0000  Tot=              0.0000
 Quadrupole moment (field-independent basis, Debye-Ang):
   XX=            -40.0422   YY=            -40.0441   ZZ=            -39.4710
   XY=              0.0004   XZ=             -0.0008   YZ=             -0.0008
 Traceless Quadrupole moment (field-independent basis, Debye-Ang):
   XX=             -0.1898   YY=             -0.1917   ZZ=              0.3814
   XY=              0.0004   XZ=             -0.0008   YZ=             -0.0008
 Octapole moment (field-independent basis, Debye-Ang**2):
  XXX=              0.0000  YYY=              0.0000  ZZZ=              0.0000  XYY=              0.0000
  XXY=              0.0000  XXZ=              0.0000  XZZ=              0.0000  YZZ=              0.0000
  YYZ=              0.0000  XYZ=              0.0000
 Hexadecapole moment (field-independent basis, Debye-Ang**3):
 XXXX=           -357.9633 YYYY=           -357.8101 ZZZZ=            -97.7028 XXXY=              0.0028
 XXXZ=              1.6132 YYYX=              0.0011 YYYZ=             -1.6942 ZZZX=             -0.0032
 ZZZY=             -0.0039 XXYY=           -119.2921 XXZZ=            -77.5651 YYZZ=            -77.5473
 XXYZ=              1.6901 YYXZ=             -1.6175 ZZXY=             -0.0011
 N-N= 2.549238552123D+02 E-N=-1.054514662430D+03  KE= 2.334672623881D+02
 No NMR shielding tensors so no spin-rotation constants.
 Leave Link  601 at Thu Mar 19 18:09:17 2026, MaxMem=   536870912 cpu:         0.0
 (Enter C:\G09W\l9999.exe)
 1|1|UNPC-DESKTOP-GS7R1K3|FOpt|RB3LYP|6-31G(d)|C6H12|1172|19-Mar-2026|0
 ||#p opt B3LYP/6-31G(d)||cyclohexane||0,1|C,-0.0201215958,-1.480117645
 1,-0.1197714157|C,-1.2851591797,-0.6443182788,-0.3717554398|C,-1.25501
 33894,0.6748582643,0.4169031819|C,0.0201216104,1.4801175323,0.11977141
 75|C,1.2851591772,0.6443181606,0.3717554664|C,1.2550133891,-0.67485836
 5,-0.4169032038|H,-0.0052939495,-1.8034345724,0.9319601219|H,-0.042029
 2501,-2.3950055309,-0.7260279855|H,-1.3606075259,-0.4198668036,-1.4464
 210056|H,-2.1812298213,-1.222367905,-0.1111445862|H,-1.2970579621,0.45
 14406088,1.4935702284|H,-2.1453363255,1.2751060767,0.1886641249|H,0.00
 52939958,1.8034344607,-0.9319601188|H,0.0420292409,2.3950054221,0.7260
 27987|H,2.1812298408,1.2223677778,0.1111446504|H,1.3606074879,0.419866
 6394,1.4464210159|H,2.1453363355,-1.2751061781,-0.1886641959|H,1.29705
 79216,-0.4514406637,-1.4935702431||Version=EM64W-G09RevD.01|State=1-A|
 HF=-235.8805046|RMSD=3.513e-009|RMSF=5.041e-005|Dipole=0.,0.,0.|Quadru
 pole=-0.1424422,-0.1174898,0.259932,-0.001422,0.0064497,-0.0971611|PG=
 C01 [X(C6H12)]||@


 SUPPORT THE RIGHT TO ARM BEARS!
 (ADD A CLAWS TO THE BILL OF RIGHTS)
 Job cpu time:       0 days  0 hours  1 minutes  6.0 seconds.
 File lengths (MBytes):  RWF=      9 Int=      0 D2E=      0 Chk=      2 Scr=      1
 Normal termination of Gaussian 09 at Thu Mar 19 18:09:17 2026.
