 Entering Gaussian System, Link 0=C:\G09W\g09.exe
 Input=diethyl_ether_xtb.com
 Output=C:\workspace\delta_chem\benchmark_results\diethyl_ether\diethyl_ether_xtb.out
 Initial command:
 C:\G09W\l1.exe ".\Gau-12000.inp" "C:\workspace\delta_chem\benchmark_results\diethyl_ether\diethyl_ether_xtb.out" /scrdir=".\"
 Entering Link 1 = C:\G09W\l1.exe PID=     15944.
  
 Copyright (c) 1988,1990,1992,1993,1995,1998,2003,2009,2013,
            Gaussian, Inc.  All Rights Reserved.
  
 This is part of the Gaussian(R) 09 program.  It is based on
 the Gaussian(R) 03 system (copyright 2003, Gaussian, Inc.),
 the Gaussian(R) 98 system (copyright 1998, Gaussian, Inc.),
 the Gaussian(R) 94 system (copyright 1995, Gaussian, Inc.),
 the Gaussian 92(TM) system (copyright 1992, Gaussian, Inc.),
 the Gaussian 90(TM) system (copyright 1990, Gaussian, Inc.),
 the Gaussian 88(TM) system (copyright 1988, Gaussian, Inc.),
 the Gaussian 86(TM) system (copyright 1986, Carnegie Mellon
 University), and the Gaussian 82(TM) system (copyright 1983,
 Carnegie Mellon University). Gaussian is a federally registered
 trademark of Gaussian, Inc.
  
 This software contains proprietary and confidential information,
 including trade secrets, belonging to Gaussian, Inc.
  
 This software is provided under written license and may be
 used, copied, transmitted, or stored only in accord with that
 written license.
  
 The following legend is applicable only to US Government
 contracts under FAR:
  
                    RESTRICTED RIGHTS LEGEND
  
 Use, reproduction and disclosure by the US Government is
 subject to restrictions as set forth in subparagraphs (a)
 and (c) of the Commercial Computer Software - Restricted
 Rights clause in FAR 52.227-19.
  
 Gaussian, Inc.
 340 Quinnipiac St., Bldg. 40, Wallingford CT 06492
  
  
 ---------------------------------------------------------------
 Warning -- This program may not be used in any manner that
 competes with the business of Gaussian, Inc. or will provide
 assistance to any competitor of Gaussian, Inc.  The licensee
 of this program is prohibited from giving any competitor of
 Gaussian, Inc. access to this program.  By using this program,
 the user acknowledges that Gaussian, Inc. is engaged in the
 business of creating and licensing software in the field of
 computational chemistry and represents and warrants to the
 licensee that it is not a competitor of Gaussian, Inc. and that
 it will not use this program in any manner prohibited above.
 ---------------------------------------------------------------
  

 Cite this work as:
 Gaussian 09, Revision D.01,
 M. J. Frisch, G. W. Trucks, H. B. Schlegel, G. E. Scuseria, 
 M. A. Robb, J. R. Cheeseman, G. Scalmani, V. Barone, B. Mennucci, 
 G. A. Petersson, H. Nakatsuji, M. Caricato, X. Li, H. P. Hratchian, 
 A. F. Izmaylov, J. Bloino, G. Zheng, J. L. Sonnenberg, M. Hada, 
 M. Ehara, K. Toyota, R. Fukuda, J. Hasegawa, M. Ishida, T. Nakajima, 
 Y. Honda, O. Kitao, H. Nakai, T. Vreven, J. A. Montgomery, Jr., 
 J. E. Peralta, F. Ogliaro, M. Bearpark, J. J. Heyd, E. Brothers, 
 K. N. Kudin, V. N. Staroverov, T. Keith, R. Kobayashi, J. Normand, 
 K. Raghavachari, A. Rendell, J. C. Burant, S. S. Iyengar, J. Tomasi, 
 M. Cossi, N. Rega, J. M. Millam, M. Klene, J. E. Knox, J. B. Cross, 
 V. Bakken, C. Adamo, J. Jaramillo, R. Gomperts, R. E. Stratmann, 
 O. Yazyev, A. J. Austin, R. Cammi, C. Pomelli, J. W. Ochterski, 
 R. L. Martin, K. Morokuma, V. G. Zakrzewski, G. A. Voth, 
 P. Salvador, J. J. Dannenberg, S. Dapprich, A. D. Daniels, 
 O. Farkas, J. B. Foresman, J. V. Ortiz, J. Cioslowski, 
 and D. J. Fox, Gaussian, Inc., Wallingford CT, 2013.
 
 ******************************************
 Gaussian 09:  EM64W-G09RevD.01 13-Apr-2013
                19-Mar-2026 
 ******************************************
 %NProcShared=4
 Will use up to    4 processors via shared memory.
 %Mem=4GB
 %Chk=diethyl_ether_xtb.chk
 ---------------------
 #p opt B3LYP/6-31G(d)
 ---------------------
 1/14=-1,18=20,19=15,26=3,38=1/1,3;
 2/9=110,12=2,17=6,18=5,40=1/2;
 3/5=1,6=6,7=1,11=2,16=1,25=1,30=1,71=1,74=-5/1,2,3;
 4//1;
 5/5=2,38=5/2;
 6/7=2,8=2,9=2,10=2,28=1/1;
 7//1,2,3,16;
 1/14=-1,18=20,19=15,26=3/3(2);
 2/9=110/2;
 99//99;
 2/9=110/2;
 3/5=1,6=6,7=1,11=2,16=1,25=1,30=1,71=1,74=-5/1,2,3;
 4/5=5,16=3,69=1/1;
 5/5=2,38=5/2;
 7//1,2,3,16;
 1/14=-1,18=20,19=15,26=3/3(-5);
 2/9=110/2;
 6/7=2,8=2,9=2,10=2,19=2,28=1/1;
 99/9=1/99;
 Leave Link    1 at Thu Mar 19 17:29:37 2026, MaxMem=   536870912 cpu:         0.0
 (Enter C:\G09W\l101.exe)
 -------------------
 diethyl_ether [xtb]
 -------------------
 Symbolic Z-matrix:
 Charge =  0 Multiplicity = 1
 C                     2.2019    1.45192   0.79358 
 C                     0.08836   0.54826  -1.37929 
 O                     0.84416  -0.01556   0.46505 
 C                    -1.28576  -0.99383  -0.11976 
 C                    -0.92736   1.3415    0.67895 
 H                     0.85007   0.55218   1.77888 
 H                     2.25594   0.15845  -0.14444 
 H                     0.32647  -1.23334  -0.38601 
 H                     0.35473  -2.09667  -2.0134 
 H                     0.60892   1.44255  -0.03539 
 H                    -0.01346  -0.92497   2.6064 
 H                    -0.91976  -0.75453  -1.7387 
 H                    -2.24745   0.29406  -2.26828 
 H                    -1.70497   0.52341  -0.54734 
 H                    -0.43176  -0.29342   1.16946 
 
 Add virtual bond connecting atoms H6         and O3         Dist= 2.70D+00.
 Add virtual bond connecting atoms H15        and O3         Dist= 2.80D+00.
 Add virtual bond connecting atoms H7         and O3         Dist= 2.92D+00.
 Add virtual bond connecting atoms H10        and O3         Dist= 2.95D+00.
 Add virtual bond connecting atoms H8         and O3         Dist= 2.97D+00.
 Add virtual bond connecting atoms H7         and C1         Dist= 3.02D+00.
 Add virtual bond connecting atoms H15        and H11        Dist= 3.07D+00.
 Add virtual bond connecting atoms H14        and C4         Dist= 3.08D+00.
 Add virtual bond connecting atoms H8         and C4         Dist= 3.12D+00.
 Add virtual bond connecting atoms H15        and C4         Dist= 3.21D+00.
 Add virtual bond connecting atoms H10        and C5         Dist= 3.21D+00.
 Add virtual bond connecting atoms H14        and C5         Dist= 3.15D+00.
 Add virtual bond connecting atoms H15        and C5         Dist= 3.36D+00.
 Add virtual bond connecting atoms H12        and C4         Dist= 3.17D+00.
 Add virtual bond connecting atoms H10        and C2         Dist= 3.21D+00.
 Add virtual bond connecting atoms H12        and C2         Dist= 3.19D+00.
 Add virtual bond connecting atoms H13        and H12        Dist= 3.35D+00.
 Add virtual bond connecting atoms H13        and H14        Dist= 3.44D+00.
 Add virtual bond connecting atoms H9         and H8         Dist= 3.48D+00.
 Add virtual bond connecting atoms H9         and H12        Dist= 3.54D+00.
 NAtoms=     15 NQM=       15 NQMF=       0 NMMI=      0 NMMIF=      0
                NMic=       0 NMicF=      0.
                    Isotopes and Nuclear Properties:
 (Nuclear quadrupole moments (NQMom) in fm**2, nuclear magnetic moments (NMagM)
  in nuclear magnetons)

  Atom         1           2           3           4           5           6           7           8           9          10
 IAtWgt=          12          12          16          12          12           1           1           1           1           1
 AtmWgt=  12.0000000  12.0000000  15.9949146  12.0000000  12.0000000   1.0078250   1.0078250   1.0078250   1.0078250   1.0078250
 NucSpn=           0           0           0           0           0           1           1           1           1           1
 AtZEff=   0.0000000   0.0000000   0.0000000   0.0000000   0.0000000   0.0000000   0.0000000   0.0000000   0.0000000   0.0000000
 NQMom=    0.0000000   0.0000000   0.0000000   0.0000000   0.0000000   0.0000000   0.0000000   0.0000000   0.0000000   0.0000000
 NMagM=    0.0000000   0.0000000   0.0000000   0.0000000   0.0000000   2.7928460   2.7928460   2.7928460   2.7928460   2.7928460
 AtZNuc=   6.0000000   6.0000000   8.0000000   6.0000000   6.0000000   1.0000000   1.0000000   1.0000000   1.0000000   1.0000000

  Atom        11          12          13          14          15
 IAtWgt=           1           1           1           1           1
 AtmWgt=   1.0078250   1.0078250   1.0078250   1.0078250   1.0078250
 NucSpn=           1           1           1           1           1
 AtZEff=   0.0000000   0.0000000   0.0000000   0.0000000   0.0000000
 NQMom=    0.0000000   0.0000000   0.0000000   0.0000000   0.0000000
 NMagM=    2.7928460   2.7928460   2.7928460   2.7928460   2.7928460
 AtZNuc=   1.0000000   1.0000000   1.0000000   1.0000000   1.0000000
 Leave Link  101 at Thu Mar 19 17:29:37 2026, MaxMem=   536870912 cpu:         0.0
 (Enter C:\G09W\l103.exe)

 GradGradGradGradGradGradGradGradGradGradGradGradGradGradGradGradGradGrad
 Berny optimization.
 Initialization pass.
                           ----------------------------
                           !    Initial Parameters    !
                           ! (Angstroms and Degrees)  !
 --------------------------                            --------------------------
 ! Name  Definition              Value          Derivative Info.                !
 --------------------------------------------------------------------------------
 ! R1    R(1,7)                  1.5987         estimate D2E/DX2                !
 ! R2    R(2,10)                 1.6961         estimate D2E/DX2                !
 ! R3    R(2,12)                 1.686          estimate D2E/DX2                !
 ! R4    R(3,6)                  1.4313         estimate D2E/DX2                !
 ! R5    R(3,7)                  1.5475         estimate D2E/DX2                !
 ! R6    R(3,8)                  1.5733         estimate D2E/DX2                !
 ! R7    R(3,10)                 1.5594         estimate D2E/DX2                !
 ! R8    R(3,15)                 1.4837         estimate D2E/DX2                !
 ! R9    R(4,8)                  1.6515         estimate D2E/DX2                !
 ! R10   R(4,12)                 1.677          estimate D2E/DX2                !
 ! R11   R(4,14)                 1.6311         estimate D2E/DX2                !
 ! R12   R(4,15)                 1.6976         estimate D2E/DX2                !
 ! R13   R(5,10)                 1.6972         estimate D2E/DX2                !
 ! R14   R(5,14)                 1.6667         estimate D2E/DX2                !
 ! R15   R(5,15)                 1.7774         estimate D2E/DX2                !
 ! R16   R(8,9)                  1.8424         estimate D2E/DX2                !
 ! R17   R(9,12)                 1.8711         estimate D2E/DX2                !
 ! R18   R(11,15)                1.6244         estimate D2E/DX2                !
 ! R19   R(12,13)                1.7728         estimate D2E/DX2                !
 ! R20   R(13,14)                1.8189         estimate D2E/DX2                !
 ! A1    A(10,2,12)            139.4485         estimate D2E/DX2                !
 ! A2    A(6,3,7)              108.2497         estimate D2E/DX2                !
 ! A3    A(6,3,8)              143.6052         estimate D2E/DX2                !
 ! A4    A(6,3,10)              85.6586         estimate D2E/DX2                !
 ! A5    A(6,3,15)              69.0242         estimate D2E/DX2                !
 ! A6    A(7,3,8)              100.0305         estimate D2E/DX2                !
 ! A7    A(7,3,10)              84.6114         estimate D2E/DX2                !
 ! A8    A(8,3,10)             120.0332         estimate D2E/DX2                !
 ! A9    A(8,3,15)              80.148          estimate D2E/DX2                !
 ! A10   A(10,3,15)            101.4046         estimate D2E/DX2                !
 ! A11   A(8,4,12)              69.6348         estimate D2E/DX2                !
 ! A12   A(8,4,14)             110.0917         estimate D2E/DX2                !
 ! A13   A(8,4,15)              72.0118         estimate D2E/DX2                !
 ! A14   A(12,4,14)             70.7482         estimate D2E/DX2                !
 ! A15   A(12,4,15)            124.3658         estimate D2E/DX2                !
 ! A16   A(14,4,15)             86.8236         estimate D2E/DX2                !
 ! A17   A(10,5,14)             98.156          estimate D2E/DX2                !
 ! A18   A(10,5,15)             85.3268         estimate D2E/DX2                !
 ! A19   A(14,5,15)             83.2027         estimate D2E/DX2                !
 ! A20   A(1,7,3)               80.1572         estimate D2E/DX2                !
 ! A21   A(3,8,4)               96.9938         estimate D2E/DX2                !
 ! A22   A(3,8,9)              146.6627         estimate D2E/DX2                !
 ! A23   A(4,8,9)              103.0222         estimate D2E/DX2                !
 ! A24   A(8,9,12)              61.5603         estimate D2E/DX2                !
 ! A25   A(2,10,3)              78.9051         estimate D2E/DX2                !
 ! A26   A(2,10,5)              91.3913         estimate D2E/DX2                !
 ! A27   A(3,10,5)              86.8934         estimate D2E/DX2                !
 ! A28   A(2,12,4)              92.0039         estimate D2E/DX2                !
 ! A29   A(2,12,9)             100.2691         estimate D2E/DX2                !
 ! A30   A(2,12,13)             93.1209         estimate D2E/DX2                !
 ! A31   A(4,12,9)             100.8378         estimate D2E/DX2                !
 ! A32   A(4,12,13)            102.084          estimate D2E/DX2                !
 ! A33   A(9,12,13)            152.9408         estimate D2E/DX2                !
 ! A34   A(12,13,14)            64.4426         estimate D2E/DX2                !
 ! A35   A(4,14,5)              98.2673         estimate D2E/DX2                !
 ! A36   A(4,14,13)            101.969          estimate D2E/DX2                !
 ! A37   A(5,14,13)            153.7903         estimate D2E/DX2                !
 ! A38   A(3,15,4)              98.5879         estimate D2E/DX2                !
 ! A39   A(3,15,5)              86.3597         estimate D2E/DX2                !
 ! A40   A(3,15,11)            105.7438         estimate D2E/DX2                !
 ! A41   A(4,15,5)              91.6998         estimate D2E/DX2                !
 ! A42   A(4,15,11)            129.8602         estimate D2E/DX2                !
 ! A43   A(5,15,11)            132.342          estimate D2E/DX2                !
 ! A44   L(7,3,15,6,-1)        177.2739         estimate D2E/DX2                !
 ! A45   L(7,3,15,6,-2)        186.8394         estimate D2E/DX2                !
 ! D1    D(12,2,10,3)           49.1062         estimate D2E/DX2                !
 ! D2    D(12,2,10,5)          -37.4537         estimate D2E/DX2                !
 ! D3    D(10,2,12,4)           -2.1689         estimate D2E/DX2                !
 ! D4    D(10,2,12,9)         -103.5625         estimate D2E/DX2                !
 ! D5    D(10,2,12,13)         100.0526         estimate D2E/DX2                !
 ! D6    D(6,3,7,1)            -30.5465         estimate D2E/DX2                !
 ! D7    D(8,3,7,1)            172.6644         estimate D2E/DX2                !
 ! D8    D(10,3,7,1)            53.071          estimate D2E/DX2                !
 ! D9    D(1,7,15,4)           144.6547         estimate D2E/DX2                !
 ! D10   D(1,7,15,5)            53.0262         estimate D2E/DX2                !
 ! D11   D(1,7,15,11)          -80.398          estimate D2E/DX2                !
 ! D12   D(6,3,8,4)             59.4333         estimate D2E/DX2                !
 ! D13   D(6,3,8,9)           -173.7273         estimate D2E/DX2                !
 ! D14   D(7,3,8,4)           -159.6772         estimate D2E/DX2                !
 ! D15   D(7,3,8,9)            -32.8378         estimate D2E/DX2                !
 ! D16   D(10,3,8,4)           -70.13           estimate D2E/DX2                !
 ! D17   D(10,3,8,9)            56.7094         estimate D2E/DX2                !
 ! D18   D(15,3,8,4)            27.4217         estimate D2E/DX2                !
 ! D19   D(15,3,8,9)           154.2611         estimate D2E/DX2                !
 ! D20   D(6,3,10,2)          -160.6423         estimate D2E/DX2                !
 ! D21   D(6,3,10,5)           -68.6123         estimate D2E/DX2                !
 ! D22   D(7,3,10,2)            90.5365         estimate D2E/DX2                !
 ! D23   D(7,3,10,5)          -177.4335         estimate D2E/DX2                !
 ! D24   D(8,3,10,2)            -7.9481         estimate D2E/DX2                !
 ! D25   D(8,3,10,5)            84.0819         estimate D2E/DX2                !
 ! D26   D(15,3,10,2)          -93.072          estimate D2E/DX2                !
 ! D27   D(15,3,10,5)           -1.042          estimate D2E/DX2                !
 ! D28   D(6,3,15,4)           172.9582         estimate D2E/DX2                !
 ! D29   D(6,3,15,5)            81.7864         estimate D2E/DX2                !
 ! D30   D(6,3,15,11)          -51.3147         estimate D2E/DX2                !
 ! D31   D(8,3,15,4)           -26.7268         estimate D2E/DX2                !
 ! D32   D(8,3,15,5)          -117.8986         estimate D2E/DX2                !
 ! D33   D(8,3,15,11)          109.0003         estimate D2E/DX2                !
 ! D34   D(10,3,15,4)           92.1674         estimate D2E/DX2                !
 ! D35   D(10,3,15,5)            0.9955         estimate D2E/DX2                !
 ! D36   D(10,3,15,11)        -132.1055         estimate D2E/DX2                !
 ! D37   D(12,4,8,3)           114.2597         estimate D2E/DX2                !
 ! D38   D(12,4,8,9)           -38.9043         estimate D2E/DX2                !
 ! D39   D(14,4,8,3)            54.9418         estimate D2E/DX2                !
 ! D40   D(14,4,8,9)           -98.2222         estimate D2E/DX2                !
 ! D41   D(15,4,8,3)           -24.6418         estimate D2E/DX2                !
 ! D42   D(15,4,8,9)          -177.8058         estimate D2E/DX2                !
 ! D43   D(8,4,12,2)           -63.017          estimate D2E/DX2                !
 ! D44   D(8,4,12,9)            37.8376         estimate D2E/DX2                !
 ! D45   D(8,4,12,13)         -156.6406         estimate D2E/DX2                !
 ! D46   D(14,4,12,2)           58.1661         estimate D2E/DX2                !
 ! D47   D(14,4,12,9)          159.0208         estimate D2E/DX2                !
 ! D48   D(14,4,12,13)         -35.4575         estimate D2E/DX2                !
 ! D49   D(15,4,12,2)          -13.7786         estimate D2E/DX2                !
 ! D50   D(15,4,12,9)           87.0761         estimate D2E/DX2                !
 ! D51   D(15,4,12,13)        -107.4022         estimate D2E/DX2                !
 ! D52   D(8,4,14,5)           -70.1841         estimate D2E/DX2                !
 ! D53   D(8,4,14,13)           93.0627         estimate D2E/DX2                !
 ! D54   D(12,4,14,5)         -128.835          estimate D2E/DX2                !
 ! D55   D(12,4,14,13)          34.4119         estimate D2E/DX2                !
 ! D56   D(15,4,14,5)           -0.6493         estimate D2E/DX2                !
 ! D57   D(15,4,14,13)         162.5975         estimate D2E/DX2                !
 ! D58   D(8,4,15,3)            26.3472         estimate D2E/DX2                !
 ! D59   D(8,4,15,5)           112.9212         estimate D2E/DX2                !
 ! D60   D(8,4,15,11)          -92.5725         estimate D2E/DX2                !
 ! D61   D(12,4,15,3)          -21.9479         estimate D2E/DX2                !
 ! D62   D(12,4,15,5)           64.626          estimate D2E/DX2                !
 ! D63   D(12,4,15,11)        -140.8677         estimate D2E/DX2                !
 ! D64   D(14,4,15,3)          -85.9712         estimate D2E/DX2                !
 ! D65   D(14,4,15,5)            0.6028         estimate D2E/DX2                !
 ! D66   D(14,4,15,11)         155.1091         estimate D2E/DX2                !
 ! D67   D(14,5,10,2)           -2.7696         estimate D2E/DX2                !
 ! D68   D(14,5,10,3)          -81.5778         estimate D2E/DX2                !
 ! D69   D(15,5,10,2)           79.6637         estimate D2E/DX2                !
 ! D70   D(15,5,10,3)            0.8555         estimate D2E/DX2                !
 ! D71   D(10,5,14,4)           84.8862         estimate D2E/DX2                !
 ! D72   D(10,5,14,13)         -55.4365         estimate D2E/DX2                !
 ! D73   D(15,5,14,4)            0.6236         estimate D2E/DX2                !
 ! D74   D(15,5,14,13)        -139.699          estimate D2E/DX2                !
 ! D75   D(10,5,15,3)           -0.8996         estimate D2E/DX2                !
 ! D76   D(10,5,15,4)          -99.3994         estimate D2E/DX2                !
 ! D77   D(10,5,15,11)         107.1515         estimate D2E/DX2                !
 ! D78   D(14,5,15,3)           97.9065         estimate D2E/DX2                !
 ! D79   D(14,5,15,4)           -0.5932         estimate D2E/DX2                !
 ! D80   D(14,5,15,11)        -154.0423         estimate D2E/DX2                !
 ! D81   D(3,8,9,12)           -88.5036         estimate D2E/DX2                !
 ! D82   D(4,8,9,12)            36.8762         estimate D2E/DX2                !
 ! D83   D(8,9,12,2)            58.1728         estimate D2E/DX2                !
 ! D84   D(8,9,12,4)           -35.8909         estimate D2E/DX2                !
 ! D85   D(8,9,12,13)          176.6165         estimate D2E/DX2                !
 ! D86   D(2,12,13,14)         -59.7394         estimate D2E/DX2                !
 ! D87   D(4,12,13,14)          32.9824         estimate D2E/DX2                !
 ! D88   D(9,12,13,14)        -179.6866         estimate D2E/DX2                !
 ! D89   D(12,13,14,4)         -34.0169         estimate D2E/DX2                !
 ! D90   D(12,13,14,5)         105.7522         estimate D2E/DX2                !
 --------------------------------------------------------------------------------
 Trust Radius=3.00D-01 FncErr=1.00D-07 GrdErr=1.00D-06
 Number of steps in this run=    100 maximum allowed number of steps=    100.
 GradGradGradGradGradGradGradGradGradGradGradGradGradGradGradGradGradGrad

 Leave Link  103 at Thu Mar 19 17:29:38 2026, MaxMem=   536870912 cpu:         0.0
 (Enter C:\G09W\l202.exe)
                          Input orientation:                          
 ---------------------------------------------------------------------
 Center     Atomic      Atomic             Coordinates (Angstroms)
 Number     Number       Type             X           Y           Z
 ---------------------------------------------------------------------
      1          6           0        2.201897    1.451917    0.793578
      2          6           0        0.088357    0.548255   -1.379286
      3          8           0        0.844159   -0.015563    0.465053
      4          6           0       -1.285764   -0.993832   -0.119755
      5          6           0       -0.927364    1.341497    0.678953
      6          1           0        0.850065    0.552181    1.778877
      7          1           0        2.255943    0.158450   -0.144436
      8          1           0        0.326467   -1.233338   -0.386005
      9          1           0        0.354731   -2.096670   -2.013399
     10          1           0        0.608918    1.442553   -0.035387
     11          1           0       -0.013461   -0.924973    2.606396
     12          1           0       -0.919762   -0.754525   -1.738700
     13          1           0       -2.247449    0.294060   -2.268282
     14          1           0       -1.704974    0.523410   -0.547345
     15          1           0       -0.431763   -0.293419    1.169460
 ---------------------------------------------------------------------
                    Distance matrix (angstroms):
                    1          2          3          4          5
     1  C    0.000000
     2  C    3.163067   0.000000
     3  O    2.026050   2.071404   0.000000
     4  C    4.356564   2.419227   2.415695   0.000000
     5  C    3.133306   2.428429   2.241798   2.494023   0.000000
     6  H    1.899418   3.248725   1.431259   3.249112   2.234303
     7  H    1.598702   2.524922   1.547544   3.724521   3.494426
     8  H    3.481271   2.053626   1.573302   1.651527   3.055488
     9  H    4.887086   2.732890   3.273113   2.737401   4.551211
    10  H    1.795787   1.696118   1.559448   3.087541   1.697250
    11  H    3.720716   4.250463   2.479494   3.009219   3.112418
    12  H    4.585365   1.686036   2.917877   1.676964   3.199752
    13  H    5.523794   2.512154   4.138239   2.683220   3.394988
    14  H    4.233656   1.977063   2.795267   1.631132   1.666658
    15  H    3.181768   2.734054   1.483701   1.697638   1.777405
                    6          7          8          9         10
     6  H    0.000000
     7  H    2.414675   0.000000
     8  H    2.854637   2.391298   0.000000
     9  H    4.652218   3.491875   1.842431   0.000000
    10  H    2.035305   2.091292   2.713504   4.062418   0.000000
    11  H    1.900645   3.727074   3.027393   4.780266   3.601604
    12  H    4.148870   3.668828   1.900561   1.871135   3.172584
    13  H    5.103011   4.980929   3.535669   3.542866   3.803116
    14  H    3.455483   3.998049   2.690529   3.640950   2.541854
    15  H    1.652124   3.025603   1.969222   3.741775   2.355477
                   11         12         13         14         15
    11  H    0.000000
    12  H    4.441879   0.000000
    13  H    5.499021   1.772778   0.000000
    14  H    3.860714   1.915464   1.818929   0.000000
    15  H    1.624384   2.984654   3.931910   2.288164   0.000000
 Stoichiometry    C4H10O
 Framework group  C1[X(C4H10O)]
 Deg. of freedom    39
 Full point group                 C1      NOp   1
 Largest Abelian subgroup         C1      NOp   1
 Largest concise Abelian subgroup C1      NOp   1
                         Standard orientation:                         
 ---------------------------------------------------------------------
 Center     Atomic      Atomic             Coordinates (Angstroms)
 Number     Number       Type             X           Y           Z
 ---------------------------------------------------------------------
      1          6           0        2.444373   -0.347359   -0.229986
      2          6           0       -0.583599   -1.097579   -0.753006
      3          8           0        0.614359   -0.082799    0.598228
      4          6           0       -1.735831    0.468998    0.686043
      5          6           0       -0.116651    1.268911   -1.033999
      6          1           0        1.452970    1.075791    0.544324
      7          1           0        1.521056   -1.336699    0.621214
      8          1           0       -0.687846   -0.674210    1.253800
      9          1           0       -1.765376   -2.152384    1.473982
     10          1           0        0.809944   -0.150450   -0.947427
     11          1           0        0.533327    2.015445    1.916825
     12          1           0       -2.083789   -1.027171    0.013279
     13          1           0       -2.932071   -0.575949   -1.476539
     14          1           0       -1.627264    0.571321   -0.938252
     15          1           0       -0.185579    1.158872    0.738657
 ---------------------------------------------------------------------
 Rotational constants (GHZ):      5.2268517      2.6989035      2.5765554
 Leave Link  202 at Thu Mar 19 17:29:38 2026, MaxMem=   536870912 cpu:         0.0
 (Enter C:\G09W\l301.exe)
 Standard basis: 6-31G(d) (6D, 7F)
 Ernie: Thresh=  0.10000D-02 Tol=  0.10000D-05 Strict=F.
 There are    95 symmetry adapted cartesian basis functions of A   symmetry.
 There are    95 symmetry adapted basis functions of A   symmetry.
    95 basis functions,   180 primitive gaussians,    95 cartesian basis functions
    21 alpha electrons       21 beta electrons
       nuclear repulsion energy       166.7862116476 Hartrees.
 IExCor=  402 DFT=T Ex+Corr=B3LYP ExCW=0 ScaHFX=  0.200000
 ScaDFX=  0.800000  0.720000  1.000000  0.810000 ScalE2=  1.000000  1.000000
 IRadAn=      0 IRanWt=     -1 IRanGd=            0 ICorTp=0 IEmpDi=  4
 NAtoms=   15 NActive=   15 NUniq=   15 SFac= 1.00D+00 NAtFMM=   60 NAOKFM=F Big=F
 Integral buffers will be    131072 words long.
 Raffenetti 2 integral format.
 Two-electron integral symmetry is turned on.
 Leave Link  301 at Thu Mar 19 17:29:39 2026, MaxMem=   536870912 cpu:         0.0
 (Enter C:\G09W\l302.exe)
 NPDir=0 NMtPBC=     1 NCelOv=     1 NCel=       1 NClECP=     1 NCelD=      1
         NCelK=      1 NCelE2=     1 NClLst=     1 CellRange=     0.0.
 One-electron integrals computed using PRISM.
 NBasis=    95 RedAO= T EigKep=  2.05D-02  NBF=    95
 NBsUse=    95 1.00D-06 EigRej= -1.00D+00 NBFU=    95
 Precomputing XC quadrature grid using
 IXCGrd= 4 IRadAn=           0 IRanWt=          -1 IRanGd=           0 AccXCQ= 0.00D+00.
 Generated NRdTot=       0 NPtTot=           0 NUsed=           0 NTot=          32
 NSgBfM=    95    95    95    95    95 MxSgAt=    15 MxSgA2=    15.
 Leave Link  302 at Thu Mar 19 17:29:39 2026, MaxMem=   536870912 cpu:         0.0
 (Enter C:\G09W\l303.exe)
 DipDrv:  MaxL=1.
 Leave Link  303 at Thu Mar 19 17:29:40 2026, MaxMem=   536870912 cpu:         0.0
 (Enter C:\G09W\l401.exe)
 ExpMin= 1.61D-01 ExpMax= 5.48D+03 ExpMxC= 8.25D+02 IAcc=1 IRadAn=         1 AccDes= 0.00D+00
 Harris functional with IExCor=  402 and IRadAn=       1 diagonalized for initial guess.
 HarFok:  IExCor=  402 AccDes= 0.00D+00 IRadAn=         1 IDoV= 1 UseB2=F ITyADJ=14
 ICtDFT=  3500011 ScaDFX=  1.000000  1.000000  1.000000  1.000000
 FoFCou: FMM=F IPFlag=           0 FMFlag=      100000 FMFlg1=           0
         NFxFlg=           0 DoJE=T BraDBF=F KetDBF=T FulRan=T
         wScrn=  0.000000 ICntrl=     500 IOpCl=  0 I1Cent=   200000004 NGrid=           0
         NMat0=    1 NMatS0=      1 NMatT0=    0 NMatD0=    1 NMtDS0=    0 NMtDT0=    0
 Petite list used in FoFCou.
 Harris En= -232.076240912510    
 JPrj=0 DoOrth=F DoCkMO=F.
 Leave Link  401 at Thu Mar 19 17:29:41 2026, MaxMem=   536870912 cpu:         1.0
 (Enter C:\G09W\l502.exe)
 Closed shell SCF:
 Using DIIS extrapolation, IDIIS=  1040.
 Integral symmetry usage will be decided dynamically.
 Keep R1 ints in memory in canonical form, NReq=11361312.
 IVT=       46930 IEndB=       46930 NGot=   536870912 MDV=   526424903
 LenX=   526424903 LenY=   526415437
 Requested convergence on RMS density matrix=1.00D-08 within 128 cycles.
 Requested convergence on MAX density matrix=1.00D-06.
 Requested convergence on             energy=1.00D-06.
 No special actions if energy rises.
 FoFCou: FMM=F IPFlag=           0 FMFlag=           0 FMFlg1=           0
         NFxFlg=           0 DoJE=F BraDBF=F KetDBF=F FulRan=T
         wScrn=  0.000000 ICntrl=     600 IOpCl=  0 I1Cent=           0 NGrid=           0
         NMat0=    1 NMatS0=   4560 NMatT0=    0 NMatD0=    1 NMtDS0=    0 NMtDT0=    0
 Symmetry not used in FoFCou.
 Integral accuracy reduced to 1.0D-05 until final iterations.

 Cycle   1  Pass 0  IDiag  1:
 E= -231.762508834717    
 DIIS: error= 3.59D-02 at cycle   1 NSaved=   1.
 NSaved= 1 IEnMin= 1 EnMin= -231.762508834717     IErMin= 1 ErrMin= 3.59D-02
 ErrMax= 3.59D-02  0.00D+00 EMaxC= 1.00D-01 BMatC= 1.50D-01 BMatP= 1.50D-01
 IDIUse=3 WtCom= 6.41D-01 WtEn= 3.59D-01
 Coeff-Com:  0.100D+01
 Coeff-En:   0.100D+01
 Coeff:      0.100D+01
 Gap=    -0.107 Goal=   None    Shift=    0.000
 GapD=   -0.107 DampG=0.250 DampE=0.500 DampFc=0.2500 IDamp=-1.
 Damping current iteration by 2.50D-01
 RMSDP=2.12D-02 MaxDP=3.86D-01              OVMax= 9.19D-01

 Cycle   2  Pass 0  IDiag  1:
 E= -231.706442398984     Delta-E=        0.056066435733 Rises=F Damp=T
 DIIS: error= 2.88D-02 at cycle   2 NSaved=   2.
 NSaved= 2 IEnMin= 1 EnMin= -231.762508834717     IErMin= 2 ErrMin= 2.88D-02
 ErrMax= 2.88D-02  0.00D+00 EMaxC= 1.00D-01 BMatC= 7.06D-02 BMatP= 1.50D-01
 IDIUse=3 WtCom= 7.12D-01 WtEn= 2.88D-01
 Coeff-Com:  0.374D+00 0.626D+00
 Coeff-En:   0.559D+00 0.441D+00
 Coeff:      0.427D+00 0.573D+00
 Gap=    -0.009 Goal=   None    Shift=    0.000
 RMSDP=1.14D-02 MaxDP=2.14D-01 DE= 5.61D-02 OVMax= 7.40D-01

 Cycle   3  Pass 0  IDiag  1:
 E= -231.557754560343     Delta-E=        0.148687838642 Rises=F Damp=F
 DIIS: error= 3.45D-02 at cycle   3 NSaved=   3.
 NSaved= 3 IEnMin= 1 EnMin= -231.762508834717     IErMin= 2 ErrMin= 2.88D-02
 ErrMax= 3.45D-02  0.00D+00 EMaxC= 1.00D-01 BMatC= 1.99D-01 BMatP= 7.06D-02
 IDIUse=2 WtCom= 0.00D+00 WtEn= 1.00D+00
 EnCoef did     2 forward-backward iterations
 Coeff-En:   0.577D+00 0.513D-01 0.372D+00
 Coeff:      0.577D+00 0.513D-01 0.372D+00
 Gap=     0.056 Goal=   None    Shift=    0.000
 RMSDP=1.37D-02 MaxDP=3.18D-01 DE= 1.49D-01 OVMax= 8.62D-01

 Cycle   4  Pass 0  IDiag  1:
 E= -230.297672031816     Delta-E=        1.260082528527 Rises=F Damp=F
 DIIS: error= 1.15D-01 at cycle   4 NSaved=   4.
 NSaved= 4 IEnMin= 1 EnMin= -231.762508834717     IErMin= 2 ErrMin= 2.88D-02
 ErrMax= 1.15D-01  0.00D+00 EMaxC= 1.00D-01 BMatC= 1.26D+00 BMatP= 7.06D-02
 IDIUse=2 WtCom= 0.00D+00 WtEn= 1.00D+00
 EnCoef did   100 forward-backward iterations
 Coeff-En:   0.578D+00 0.877D-02 0.305D+00 0.109D+00
 Coeff:      0.578D+00 0.877D-02 0.305D+00 0.109D+00
 Gap=     0.002 Goal=   None    Shift=    0.000
 RMSDP=1.07D-02 MaxDP=2.78D-01 DE= 1.26D+00 OVMax= 7.81D-01

 Cycle   5  Pass 0  IDiag  1:
 E= -231.805566747520     Delta-E=       -1.507894715704 Rises=F Damp=F
 DIIS: error= 3.99D-02 at cycle   5 NSaved=   5.
 NSaved= 5 IEnMin= 5 EnMin= -231.805566747520     IErMin= 2 ErrMin= 2.88D-02
 ErrMax= 3.99D-02  0.00D+00 EMaxC= 1.00D-01 BMatC= 1.82D-01 BMatP= 7.06D-02
 IDIUse=2 WtCom= 0.00D+00 WtEn= 1.00D+00
 EnCoef did     3 forward-backward iterations
 Coeff-En:   0.459D+00 0.000D+00 0.120D+00 0.000D+00 0.421D+00
 Coeff:      0.459D+00 0.000D+00 0.120D+00 0.000D+00 0.421D+00
 Gap=     0.032 Goal=   None    Shift=    0.000
 RMSDP=9.75D-03 MaxDP=1.35D-01 DE=-1.51D+00 OVMax= 6.36D-01

 Cycle   6  Pass 0  IDiag  1:
 E= -231.185737036570     Delta-E=        0.619829710950 Rises=F Damp=F
 DIIS: error= 7.71D-02 at cycle   6 NSaved=   6.
 NSaved= 6 IEnMin= 5 EnMin= -231.805566747520     IErMin= 2 ErrMin= 2.88D-02
 ErrMax= 7.71D-02  0.00D+00 EMaxC= 1.00D-01 BMatC= 5.71D-01 BMatP= 7.06D-02
 IDIUse=2 WtCom= 0.00D+00 WtEn= 1.00D+00
 EnCoef did     3 forward-backward iterations
 Coeff-En:   0.437D+00 0.000D+00 0.566D-01 0.000D+00 0.411D+00 0.948D-01
 Coeff:      0.437D+00 0.000D+00 0.566D-01 0.000D+00 0.411D+00 0.948D-01
 Gap=     0.006 Goal=   None    Shift=    0.000
 RMSDP=8.59D-03 MaxDP=1.40D-01 DE= 6.20D-01 OVMax= 6.45D-01

 Cycle   7  Pass 0  IDiag  1:
 E= -231.958277595815     Delta-E=       -0.772540559245 Rises=F Damp=F
 DIIS: error= 2.06D-02 at cycle   7 NSaved=   7.
 NSaved= 7 IEnMin= 7 EnMin= -231.958277595815     IErMin= 7 ErrMin= 2.06D-02
 ErrMax= 2.06D-02  0.00D+00 EMaxC= 1.00D-01 BMatC= 5.69D-02 BMatP= 7.06D-02
 IDIUse=3 WtCom= 7.94D-01 WtEn= 2.06D-01
 EnCoef did     6 forward-backward iterations
 Coeff-Com:  0.158D+00 0.125D+00-0.106D+00-0.196D-01 0.313D+00 0.234D-01
 Coeff-Com:  0.506D+00
 Coeff-En:   0.180D+00 0.000D+00 0.000D+00 0.000D+00 0.317D+00 0.000D+00
 Coeff-En:   0.503D+00
 Coeff:      0.163D+00 0.991D-01-0.844D-01-0.155D-01 0.314D+00 0.186D-01
 Coeff:      0.505D+00
 Gap=     0.032 Goal=   None    Shift=    0.000
 RMSDP=4.43D-03 MaxDP=1.03D-01 DE=-7.73D-01 OVMax= 1.96D-01

 Cycle   8  Pass 0  IDiag  1:
 E= -231.974628525829     Delta-E=       -0.016350930014 Rises=F Damp=F
 DIIS: error= 2.81D-02 at cycle   8 NSaved=   8.
 NSaved= 8 IEnMin= 8 EnMin= -231.974628525829     IErMin= 7 ErrMin= 2.06D-02
 ErrMax= 2.81D-02  0.00D+00 EMaxC= 1.00D-01 BMatC= 3.75D-02 BMatP= 5.69D-02
 IDIUse=3 WtCom= 7.94D-01 WtEn= 2.06D-01
 EnCoef did     7 forward-backward iterations
 Coeff-Com:  0.100D+00 0.713D-01-0.116D+00-0.423D-02 0.243D+00-0.278D-01
 Coeff-Com:  0.505D+00 0.229D+00
 Coeff-En:   0.110D+00 0.000D+00 0.000D+00 0.000D+00 0.182D+00 0.000D+00
 Coeff-En:   0.374D+00 0.334D+00
 Coeff:      0.102D+00 0.566D-01-0.923D-01-0.336D-02 0.230D+00-0.221D-01
 Coeff:      0.478D+00 0.251D+00
 Gap=     0.037 Goal=   None    Shift=    0.000
 RMSDP=3.62D-03 MaxDP=6.05D-02 DE=-1.64D-02 OVMax= 1.99D-01

 Cycle   9  Pass 0  IDiag  1:
 E= -232.020531895847     Delta-E=       -0.045903370018 Rises=F Damp=F
 DIIS: error= 1.25D-02 at cycle   9 NSaved=   9.
 NSaved= 9 IEnMin= 9 EnMin= -232.020531895847     IErMin= 9 ErrMin= 1.25D-02
 ErrMax= 1.25D-02  0.00D+00 EMaxC= 1.00D-01 BMatC= 9.68D-03 BMatP= 3.75D-02
 IDIUse=3 WtCom= 8.75D-01 WtEn= 1.25D-01
 EnCoef did     1 forward-backward iterations
 Coeff-Com:  0.285D-01 0.505D-01-0.594D-01 0.193D-03 0.914D-01-0.226D-01
 Coeff-Com:  0.276D+00 0.270D+00 0.365D+00
 Coeff-En:   0.000D+00 0.000D+00 0.000D+00 0.000D+00 0.000D+00 0.000D+00
 Coeff-En:   0.192D-01 0.286D+00 0.695D+00
 Coeff:      0.250D-01 0.442D-01-0.520D-01 0.169D-03 0.800D-01-0.198D-01
 Coeff:      0.244D+00 0.272D+00 0.406D+00
 Gap=     0.031 Goal=   None    Shift=    0.000
 RMSDP=2.05D-03 MaxDP=3.43D-02 DE=-4.59D-02 OVMax= 9.96D-02

 Cycle  10  Pass 0  IDiag  1:
 E= -232.030824217085     Delta-E=       -0.010292321238 Rises=F Damp=F
 DIIS: error= 5.01D-03 at cycle  10 NSaved=  10.
 NSaved=10 IEnMin=10 EnMin= -232.030824217085     IErMin=10 ErrMin= 5.01D-03
 ErrMax= 5.01D-03  0.00D+00 EMaxC= 1.00D-01 BMatC= 2.85D-03 BMatP= 9.68D-03
 IDIUse=3 WtCom= 9.50D-01 WtEn= 5.01D-02
 EnCoef did     7 forward-backward iterations
 Coeff-Com: -0.128D-01 0.219D-01-0.152D-01-0.672D-03-0.133D-01 0.824D-02
 Coeff-Com:  0.486D-02 0.113D+00 0.415D+00 0.479D+00
 Coeff-En:   0.000D+00 0.000D+00 0.000D+00 0.000D+00 0.000D+00 0.000D+00
 Coeff-En:   0.000D+00 0.598D-01 0.346D+00 0.594D+00
 Coeff:     -0.122D-01 0.208D-01-0.144D-01-0.638D-03-0.126D-01 0.782D-02
 Coeff:      0.462D-02 0.110D+00 0.412D+00 0.485D+00
 Gap=     0.033 Goal=   None    Shift=    0.000
 RMSDP=9.29D-04 MaxDP=2.03D-02 DE=-1.03D-02 OVMax= 4.76D-02

 Cycle  11  Pass 0  IDiag  1:
 E= -232.035887239050     Delta-E=       -0.005063021965 Rises=F Damp=F
 DIIS: error= 1.91D-03 at cycle  11 NSaved=  11.
 NSaved=11 IEnMin=11 EnMin= -232.035887239050     IErMin=11 ErrMin= 1.91D-03
 ErrMax= 1.91D-03  0.00D+00 EMaxC= 1.00D-01 BMatC= 2.15D-04 BMatP= 2.85D-03
 IDIUse=3 WtCom= 9.81D-01 WtEn= 1.91D-02
 Coeff-Com: -0.299D-02-0.200D-02-0.600D-02 0.174D-02-0.443D-02 0.104D-02
 Coeff-Com: -0.725D-02 0.222D-02 0.163D+00 0.196D+00 0.658D+00
 Coeff-En:   0.000D+00 0.000D+00 0.000D+00 0.000D+00 0.000D+00 0.000D+00
 Coeff-En:   0.000D+00 0.000D+00 0.374D-01 0.000D+00 0.963D+00
 Coeff:     -0.293D-02-0.197D-02-0.589D-02 0.171D-02-0.435D-02 0.102D-02
 Coeff:     -0.711D-02 0.218D-02 0.161D+00 0.193D+00 0.664D+00
 Gap=     0.034 Goal=   None    Shift=    0.000
 RMSDP=1.96D-04 MaxDP=2.91D-03 DE=-5.06D-03 OVMax= 1.05D-02

 Cycle  12  Pass 0  IDiag  1:
 E= -232.036149412840     Delta-E=       -0.000262173790 Rises=F Damp=F
 DIIS: error= 7.28D-04 at cycle  12 NSaved=  12.
 NSaved=12 IEnMin=12 EnMin= -232.036149412840     IErMin=12 ErrMin= 7.28D-04
 ErrMax= 7.28D-04  0.00D+00 EMaxC= 1.00D-01 BMatC= 6.56D-05 BMatP= 2.15D-04
 IDIUse=3 WtCom= 9.93D-01 WtEn= 7.28D-03
 Coeff-Com: -0.173D-03-0.962D-03-0.152D-02 0.215D-03-0.251D-02-0.365D-03
 Coeff-Com: -0.857D-02-0.255D-01 0.573D-01 0.557D-01 0.551D+00 0.375D+00
 Coeff-En:   0.000D+00 0.000D+00 0.000D+00 0.000D+00 0.000D+00 0.000D+00
 Coeff-En:   0.000D+00 0.000D+00 0.000D+00 0.000D+00 0.000D+00 0.100D+01
 Coeff:     -0.171D-03-0.955D-03-0.151D-02 0.214D-03-0.249D-02-0.362D-03
 Coeff:     -0.850D-02-0.253D-01 0.569D-01 0.553D-01 0.547D+00 0.380D+00
 Gap=     0.034 Goal=   None    Shift=    0.000
 RMSDP=1.15D-04 MaxDP=2.30D-03 DE=-2.62D-04 OVMax= 6.27D-03

 Cycle  13  Pass 0  IDiag  1:
 E= -232.036228947913     Delta-E=       -0.000079535073 Rises=F Damp=F
 DIIS: error= 5.44D-04 at cycle  13 NSaved=  13.
 NSaved=13 IEnMin=13 EnMin= -232.036228947913     IErMin=13 ErrMin= 5.44D-04
 ErrMax= 5.44D-04  0.00D+00 EMaxC= 1.00D-01 BMatC= 9.66D-06 BMatP= 6.56D-05
 IDIUse=3 WtCom= 9.95D-01 WtEn= 5.44D-03
 Coeff-Com:  0.554D-03-0.889D-03-0.124D-02 0.153D-03-0.187D-02-0.504D-03
 Coeff-Com: -0.468D-02-0.153D-01 0.311D-01 0.215D-01 0.272D+00 0.279D+00
 Coeff-Com:  0.420D+00
 Coeff-En:   0.000D+00 0.000D+00 0.000D+00 0.000D+00 0.000D+00 0.000D+00
 Coeff-En:   0.000D+00 0.000D+00 0.000D+00 0.000D+00 0.000D+00 0.000D+00
 Coeff-En:   0.100D+01
 Coeff:      0.551D-03-0.884D-03-0.123D-02 0.152D-03-0.186D-02-0.501D-03
 Coeff:     -0.465D-02-0.152D-01 0.310D-01 0.214D-01 0.270D+00 0.277D+00
 Coeff:      0.424D+00
 Gap=     0.034 Goal=   None    Shift=    0.000
 RMSDP=5.64D-05 MaxDP=1.25D-03 DE=-7.95D-05 OVMax= 2.72D-03

 Cycle  14  Pass 0  IDiag  1:
 E= -232.036242993475     Delta-E=       -0.000014045562 Rises=F Damp=F
 DIIS: error= 1.94D-04 at cycle  14 NSaved=  14.
 NSaved=14 IEnMin=14 EnMin= -232.036242993475     IErMin=14 ErrMin= 1.94D-04
 ErrMax= 1.94D-04  0.00D+00 EMaxC= 1.00D-01 BMatC= 4.01D-06 BMatP= 9.66D-06
 IDIUse=3 WtCom= 9.98D-01 WtEn= 1.94D-03
 Coeff-Com:  0.115D-02-0.604D-03-0.105D-03 0.178D-04-0.214D-02-0.375D-03
 Coeff-Com: -0.172D-02 0.530D-03 0.321D-02-0.110D-01-0.789D-01 0.674D-01
 Coeff-Com:  0.406D+00 0.616D+00
 Coeff-En:   0.000D+00 0.000D+00 0.000D+00 0.000D+00 0.000D+00 0.000D+00
 Coeff-En:   0.000D+00 0.000D+00 0.000D+00 0.000D+00 0.000D+00 0.000D+00
 Coeff-En:   0.000D+00 0.100D+01
 Coeff:      0.115D-02-0.602D-03-0.105D-03 0.177D-04-0.214D-02-0.374D-03
 Coeff:     -0.171D-02 0.529D-03 0.321D-02-0.109D-01-0.788D-01 0.672D-01
 Coeff:      0.405D+00 0.617D+00
 Gap=     0.034 Goal=   None    Shift=    0.000
 RMSDP=8.62D-05 MaxDP=1.06D-03 DE=-1.40D-05 OVMax= 7.09D-03

 Cycle  15  Pass 0  IDiag  1:
 E= -232.036254050508     Delta-E=       -0.000011057033 Rises=F Damp=F
 DIIS: error= 3.24D-04 at cycle  15 NSaved=  15.
 NSaved=15 IEnMin=15 EnMin= -232.036254050508     IErMin=14 ErrMin= 1.94D-04
 ErrMax= 3.24D-04  0.00D+00 EMaxC= 1.00D-01 BMatC= 2.62D-06 BMatP= 4.01D-06
 IDIUse=3 WtCom= 9.98D-01 WtEn= 1.94D-03
 Coeff-Com:  0.694D-03-0.553D-03-0.320D-03 0.755D-04-0.117D-02-0.106D-04
 Coeff-Com:  0.105D-02 0.389D-02-0.257D-02-0.114D-01-0.136D+00-0.608D-01
 Coeff-Com: -0.851D-01 0.401D+00 0.891D+00
 Coeff-En:   0.000D+00 0.000D+00 0.000D+00 0.000D+00 0.000D+00 0.000D+00
 Coeff-En:   0.000D+00 0.000D+00 0.000D+00 0.000D+00 0.000D+00 0.000D+00
 Coeff-En:   0.000D+00 0.000D+00 0.100D+01
 Coeff:      0.693D-03-0.552D-03-0.319D-03 0.753D-04-0.117D-02-0.106D-04
 Coeff:      0.105D-02 0.388D-02-0.257D-02-0.114D-01-0.136D+00-0.607D-01
 Coeff:     -0.850D-01 0.400D+00 0.891D+00
 Gap=     0.034 Goal=   None    Shift=    0.000
 RMSDP=7.71D-05 MaxDP=8.04D-04 DE=-1.11D-05 OVMax= 6.00D-03

 Cycle  16  Pass 0  IDiag  1:
 E= -232.036262180893     Delta-E=       -0.000008130385 Rises=F Damp=F
 DIIS: error= 2.04D-04 at cycle  16 NSaved=  16.
 NSaved=16 IEnMin=16 EnMin= -232.036262180893     IErMin=14 ErrMin= 1.94D-04
 ErrMax= 2.04D-04  0.00D+00 EMaxC= 1.00D-01 BMatC= 1.22D-06 BMatP= 2.62D-06
 IDIUse=3 WtCom= 9.98D-01 WtEn= 1.94D-03
 Coeff-Com:  0.313D-03-0.379D-03-0.343D-03 0.279D-04-0.292D-03 0.208D-04
 Coeff-Com:  0.876D-03 0.595D-03 0.383D-02 0.209D-02-0.288D-01-0.364D-01
 Coeff-Com: -0.236D+00 0.400D-01 0.124D+00 0.113D+01
 Coeff-En:   0.000D+00 0.000D+00 0.000D+00 0.000D+00 0.000D+00 0.000D+00
 Coeff-En:   0.000D+00 0.000D+00 0.000D+00 0.000D+00 0.000D+00 0.000D+00
 Coeff-En:   0.000D+00 0.000D+00 0.000D+00 0.100D+01
 Coeff:      0.313D-03-0.379D-03-0.343D-03 0.278D-04-0.291D-03 0.208D-04
 Coeff:      0.874D-03 0.593D-03 0.383D-02 0.209D-02-0.287D-01-0.363D-01
 Coeff:     -0.235D+00 0.399D-01 0.124D+00 0.113D+01
 Gap=     0.034 Goal=   None    Shift=    0.000
 RMSDP=7.22D-05 MaxDP=8.04D-04 DE=-8.13D-06 OVMax= 5.93D-03

 Cycle  17  Pass 0  IDiag  1:
 E= -232.036266348833     Delta-E=       -0.000004167940 Rises=F Damp=F
 DIIS: error= 1.53D-04 at cycle  17 NSaved=  17.
 NSaved=17 IEnMin=17 EnMin= -232.036266348833     IErMin=17 ErrMin= 1.53D-04
 ErrMax= 1.53D-04  0.00D+00 EMaxC= 1.00D-01 BMatC= 6.82D-07 BMatP= 1.22D-06
 IDIUse=3 WtCom= 9.98D-01 WtEn= 1.53D-03
 Coeff-Com:  0.287D-03-0.229D-03-0.123D-03-0.167D-05-0.234D-03-0.117D-03
 Coeff-Com:  0.882D-04-0.118D-02 0.610D-02 0.606D-02 0.168D-01 0.426D-02
 Coeff-Com: -0.106D+00 0.177D-01-0.219D+00 0.366D+00 0.910D+00
 Coeff-En:   0.000D+00 0.000D+00 0.000D+00 0.000D+00 0.000D+00 0.000D+00
 Coeff-En:   0.000D+00 0.000D+00 0.000D+00 0.000D+00 0.000D+00 0.000D+00
 Coeff-En:   0.000D+00 0.000D+00 0.000D+00 0.000D+00 0.100D+01
 Coeff:      0.286D-03-0.229D-03-0.123D-03-0.166D-05-0.233D-03-0.117D-03
 Coeff:      0.880D-04-0.118D-02 0.609D-02 0.605D-02 0.168D-01 0.425D-02
 Coeff:     -0.106D+00 0.176D-01-0.219D+00 0.366D+00 0.910D+00
 Gap=     0.034 Goal=   None    Shift=    0.000
 RMSDP=3.90D-05 MaxDP=4.42D-04 DE=-4.17D-06 OVMax= 3.20D-03

 Cycle  18  Pass 0  IDiag  1:
 E= -232.036268046691     Delta-E=       -0.000001697859 Rises=F Damp=F
 DIIS: error= 1.16D-04 at cycle  18 NSaved=  18.
 NSaved=18 IEnMin=18 EnMin= -232.036268046691     IErMin=18 ErrMin= 1.16D-04
 ErrMax= 1.16D-04  0.00D+00 EMaxC= 1.00D-01 BMatC= 4.31D-07 BMatP= 6.82D-07
 IDIUse=3 WtCom= 9.99D-01 WtEn= 1.16D-03
 Coeff-Com:  0.184D-03-0.244D-03-0.363D-04 0.252D-05-0.194D-03-0.856D-04
 Coeff-Com: -0.196D-03 0.308D-03 0.445D-03 0.360D-02-0.312D-01-0.805D-02
 Coeff-Com:  0.128D-01 0.124D+00 0.130D+00-0.454D+00-0.119D+01 0.241D+01
 Coeff-En:   0.000D+00 0.000D+00 0.000D+00 0.000D+00 0.000D+00 0.000D+00
 Coeff-En:   0.000D+00 0.000D+00 0.000D+00 0.000D+00 0.000D+00 0.000D+00
 Coeff-En:   0.000D+00 0.000D+00 0.000D+00 0.000D+00 0.000D+00 0.100D+01
 Coeff:      0.184D-03-0.244D-03-0.363D-04 0.252D-05-0.193D-03-0.855D-04
 Coeff:     -0.196D-03 0.307D-03 0.444D-03 0.360D-02-0.312D-01-0.804D-02
 Coeff:      0.128D-01 0.124D+00 0.130D+00-0.453D+00-0.119D+01 0.241D+01
 Gap=     0.034 Goal=   None    Shift=    0.000
 RMSDP=6.68D-05 MaxDP=7.32D-04 DE=-1.70D-06 OVMax= 5.48D-03

 Cycle  19  Pass 0  IDiag  1:
 E= -232.036270146164     Delta-E=       -0.000002099473 Rises=F Damp=F
 DIIS: error= 5.08D-05 at cycle  19 NSaved=  19.
 NSaved=19 IEnMin=19 EnMin= -232.036270146164     IErMin=19 ErrMin= 5.08D-05
 ErrMax= 5.08D-05  0.00D+00 EMaxC= 1.00D-01 BMatC= 1.16D-07 BMatP= 4.31D-07
 IDIUse=1 WtCom= 1.00D+00 WtEn= 0.00D+00
 Coeff-Com:  0.720D-04-0.125D-03-0.577D-04 0.317D-05-0.102D-03-0.218D-04
 Coeff-Com: -0.338D-04 0.806D-03-0.177D-02 0.149D-02-0.274D-01-0.996D-02
 Coeff-Com: -0.146D-01 0.580D-01 0.193D+00-0.737D-01-0.103D+01 0.483D+00
 Coeff-Com:  0.143D+01
 Coeff:      0.720D-04-0.125D-03-0.577D-04 0.317D-05-0.102D-03-0.218D-04
 Coeff:     -0.338D-04 0.806D-03-0.177D-02 0.149D-02-0.274D-01-0.996D-02
 Coeff:     -0.146D-01 0.580D-01 0.193D+00-0.737D-01-0.103D+01 0.483D+00
 Coeff:      0.143D+01
 Gap=     0.034 Goal=   None    Shift=    0.000
 RMSDP=5.46D-05 MaxDP=5.63D-04 DE=-2.10D-06 OVMax= 4.50D-03

 Cycle  20  Pass 0  IDiag  1:
 E= -232.036271024002     Delta-E=       -0.000000877838 Rises=F Damp=F
 DIIS: error= 1.99D-05 at cycle  20 NSaved=  20.
 NSaved=20 IEnMin=20 EnMin= -232.036271024002     IErMin=20 ErrMin= 1.99D-05
 ErrMax= 1.99D-05  0.00D+00 EMaxC= 1.00D-01 BMatC= 2.94D-08 BMatP= 1.16D-07
 IDIUse=1 WtCom= 1.00D+00 WtEn= 0.00D+00
 Coeff-Com:  0.434D-04-0.147D-04-0.475D-04-0.122D-05-0.445D-04-0.377D-05
 Coeff-Com: -0.204D-05 0.255D-03-0.998D-04 0.863D-03 0.550D-02-0.174D-02
 Coeff-Com: -0.520D-01-0.383D-01-0.690D-02 0.370D+00 0.301D+00-0.126D+01
 Coeff-Com:  0.334D+00 0.135D+01
 Coeff:      0.434D-04-0.147D-04-0.475D-04-0.122D-05-0.445D-04-0.377D-05
 Coeff:     -0.204D-05 0.255D-03-0.998D-04 0.863D-03 0.550D-02-0.174D-02
 Coeff:     -0.520D-01-0.383D-01-0.690D-02 0.370D+00 0.301D+00-0.126D+01
 Coeff:      0.334D+00 0.135D+01
 Gap=     0.034 Goal=   None    Shift=    0.000
 RMSDP=3.91D-05 MaxDP=3.67D-04 DE=-8.78D-07 OVMax= 3.17D-03

 Cycle  21  Pass 0  IDiag  1:
 E= -232.036271309552     Delta-E=       -0.000000285550 Rises=F Damp=F
 DIIS: error= 4.87D-06 at cycle  21 NSaved=  20.
 NSaved=20 IEnMin=20 EnMin= -232.036271309552     IErMin=20 ErrMin= 4.87D-06
 ErrMax= 4.87D-06  0.00D+00 EMaxC= 1.00D-01 BMatC= 3.10D-09 BMatP= 2.94D-08
 IDIUse=1 WtCom= 1.00D+00 WtEn= 0.00D+00
 Coeff-Com:  0.230D-04 0.451D-06-0.199D-04-0.256D-04-0.892D-05-0.170D-04
 Coeff-Com:  0.488D-04 0.413D-03 0.217D-03 0.692D-02 0.110D-02-0.230D-01
 Coeff-Com: -0.256D-01-0.342D-01 0.189D+00 0.303D+00-0.565D+00-0.159D+00
 Coeff-Com:  0.272D+00 0.103D+01
 Coeff:      0.230D-04 0.451D-06-0.199D-04-0.256D-04-0.892D-05-0.170D-04
 Coeff:      0.488D-04 0.413D-03 0.217D-03 0.692D-02 0.110D-02-0.230D-01
 Coeff:     -0.256D-01-0.342D-01 0.189D+00 0.303D+00-0.565D+00-0.159D+00
 Coeff:      0.272D+00 0.103D+01
 Gap=     0.034 Goal=   None    Shift=    0.000
 RMSDP=1.25D-05 MaxDP=1.35D-04 DE=-2.86D-07 OVMax= 9.79D-04

 Cycle  22  Pass 0  IDiag  1:
 E= -232.036271342345     Delta-E=       -0.000000032793 Rises=F Damp=F
 DIIS: error= 1.85D-06 at cycle  22 NSaved=  20.
 NSaved=20 IEnMin=20 EnMin= -232.036271342345     IErMin=20 ErrMin= 1.85D-06
 ErrMax= 1.85D-06  0.00D+00 EMaxC= 1.00D-01 BMatC= 2.64D-10 BMatP= 3.10D-09
 IDIUse=1 WtCom= 1.00D+00 WtEn= 0.00D+00
 Coeff-Com: -0.292D-05-0.553D-05 0.339D-05 0.692D-05-0.486D-05 0.261D-04
 Coeff-Com:  0.107D-03 0.234D-04-0.171D-02-0.109D-02 0.457D-02 0.758D-02
 Coeff-Com:  0.985D-02-0.541D-01-0.963D-01 0.263D+00-0.205D-01-0.392D+00
 Coeff-Com:  0.114D+00 0.117D+01
 Coeff:     -0.292D-05-0.553D-05 0.339D-05 0.692D-05-0.486D-05 0.261D-04
 Coeff:      0.107D-03 0.234D-04-0.171D-02-0.109D-02 0.457D-02 0.758D-02
 Coeff:      0.985D-02-0.541D-01-0.963D-01 0.263D+00-0.205D-01-0.392D+00
 Coeff:      0.114D+00 0.117D+01
 Gap=     0.034 Goal=   None    Shift=    0.000
 RMSDP=4.11D-06 MaxDP=5.00D-05 DE=-3.28D-08 OVMax= 2.81D-04

 Initial convergence to 1.0D-05 achieved.  Increase integral accuracy.
 Cycle  23  Pass 1  IDiag  1:
 E= -232.036400280858     Delta-E=       -0.000128938513 Rises=F Damp=F
 DIIS: error= 2.09D-05 at cycle   1 NSaved=   1.
 NSaved= 1 IEnMin= 1 EnMin= -232.036400280858     IErMin= 1 ErrMin= 2.09D-05
 ErrMax= 2.09D-05  0.00D+00 EMaxC= 1.00D-01 BMatC= 5.49D-08 BMatP= 5.49D-08
 IDIUse=1 WtCom= 1.00D+00 WtEn= 0.00D+00
 Coeff-Com:  0.100D+01
 Coeff:      0.100D+01
 Gap=     0.034 Goal=   None    Shift=    0.000
 RMSDP=4.11D-06 MaxDP=5.00D-05 DE=-1.29D-04 OVMax= 1.78D-04

 Cycle  24  Pass 1  IDiag  1:
 E= -232.036400359496     Delta-E=       -0.000000078637 Rises=F Damp=F
 DIIS: error= 8.36D-06 at cycle   2 NSaved=   2.
 NSaved= 2 IEnMin= 2 EnMin= -232.036400359496     IErMin= 2 ErrMin= 8.36D-06
 ErrMax= 8.36D-06  0.00D+00 EMaxC= 1.00D-01 BMatC= 5.68D-09 BMatP= 5.49D-08
 IDIUse=1 WtCom= 1.00D+00 WtEn= 0.00D+00
 Coeff-Com:  0.675D-01 0.933D+00
 Coeff:      0.675D-01 0.933D+00
 Gap=     0.034 Goal=   None    Shift=    0.000
 RMSDP=5.42D-06 MaxDP=1.36D-04 DE=-7.86D-08 OVMax= 3.19D-04

 Cycle  25  Pass 1  IDiag  1:
 E= -232.036400175676     Delta-E=        0.000000183819 Rises=F Damp=F
 DIIS: error= 4.19D-05 at cycle   3 NSaved=   3.
 NSaved= 3 IEnMin= 2 EnMin= -232.036400359496     IErMin= 2 ErrMin= 8.36D-06
 ErrMax= 4.19D-05  0.00D+00 EMaxC= 1.00D-01 BMatC= 1.25D-07 BMatP= 5.68D-09
 IDIUse=1 WtCom= 1.00D+00 WtEn= 0.00D+00
 Coeff-Com: -0.132D-01 0.849D+00 0.164D+00
 Coeff:     -0.132D-01 0.849D+00 0.164D+00
 Gap=     0.034 Goal=   None    Shift=    0.000
 RMSDP=5.00D-06 MaxDP=1.13D-04 DE= 1.84D-07 OVMax= 2.79D-04

 Cycle  26  Pass 1  IDiag  1:
 E= -232.036400347845     Delta-E=       -0.000000172169 Rises=F Damp=F
 DIIS: error= 1.81D-05 at cycle   4 NSaved=   4.
 NSaved= 4 IEnMin= 2 EnMin= -232.036400359496     IErMin= 2 ErrMin= 8.36D-06
 ErrMax= 1.81D-05  0.00D+00 EMaxC= 1.00D-01 BMatC= 1.62D-08 BMatP= 5.68D-09
 IDIUse=1 WtCom= 1.00D+00 WtEn= 0.00D+00
 Coeff-Com: -0.204D-01 0.694D+00 0.153D+00 0.173D+00
 Coeff:     -0.204D-01 0.694D+00 0.153D+00 0.173D+00
 Gap=     0.034 Goal=   None    Shift=    0.000
 RMSDP=2.02D-06 MaxDP=4.15D-05 DE=-1.72D-07 OVMax= 1.11D-04

 Cycle  27  Pass 1  IDiag  1:
 E= -232.036400367943     Delta-E=       -0.000000020098 Rises=F Damp=F
 DIIS: error= 6.19D-06 at cycle   5 NSaved=   5.
 NSaved= 5 IEnMin= 5 EnMin= -232.036400367943     IErMin= 5 ErrMin= 6.19D-06
 ErrMax= 6.19D-06  0.00D+00 EMaxC= 1.00D-01 BMatC= 2.77D-09 BMatP= 5.68D-09
 IDIUse=1 WtCom= 1.00D+00 WtEn= 0.00D+00
 Coeff-Com: -0.186D-01 0.410D+00 0.982D-01 0.201D+00 0.309D+00
 Coeff:     -0.186D-01 0.410D+00 0.982D-01 0.201D+00 0.309D+00
 Gap=     0.034 Goal=   None    Shift=    0.000
 RMSDP=1.09D-06 MaxDP=2.20D-05 DE=-2.01D-08 OVMax= 6.83D-05

 Cycle  28  Pass 1  IDiag  1:
 E= -232.036400372137     Delta-E=       -0.000000004194 Rises=F Damp=F
 DIIS: error= 2.22D-06 at cycle   6 NSaved=   6.
 NSaved= 6 IEnMin= 6 EnMin= -232.036400372137     IErMin= 6 ErrMin= 2.22D-06
 ErrMax= 2.22D-06  0.00D+00 EMaxC= 1.00D-01 BMatC= 3.65D-10 BMatP= 2.77D-09
 IDIUse=1 WtCom= 1.00D+00 WtEn= 0.00D+00
 Coeff-Com: -0.870D-02 0.112D+00 0.284D-01 0.999D-01 0.291D+00 0.477D+00
 Coeff:     -0.870D-02 0.112D+00 0.284D-01 0.999D-01 0.291D+00 0.477D+00
 Gap=     0.034 Goal=   None    Shift=    0.000
 RMSDP=6.57D-07 MaxDP=1.04D-05 DE=-4.19D-09 OVMax= 3.94D-05

 Cycle  29  Pass 1  IDiag  1:
 E= -232.036400373216     Delta-E=       -0.000000001079 Rises=F Damp=F
 DIIS: error= 1.62D-06 at cycle   7 NSaved=   7.
 NSaved= 7 IEnMin= 7 EnMin= -232.036400373216     IErMin= 7 ErrMin= 1.62D-06
 ErrMax= 1.62D-06  0.00D+00 EMaxC= 1.00D-01 BMatC= 1.46D-10 BMatP= 3.65D-10
 IDIUse=1 WtCom= 1.00D+00 WtEn= 0.00D+00
 Coeff-Com: -0.310D-02 0.163D-01 0.457D-02 0.459D-01 0.198D+00 0.420D+00
 Coeff-Com:  0.319D+00
 Coeff:     -0.310D-02 0.163D-01 0.457D-02 0.459D-01 0.198D+00 0.420D+00
 Coeff:      0.319D+00
 Gap=     0.034 Goal=   None    Shift=    0.000
 RMSDP=3.62D-07 MaxDP=4.53D-06 DE=-1.08D-09 OVMax= 2.46D-05

 Cycle  30  Pass 1  IDiag  1:
 E= -232.036400373595     Delta-E=       -0.000000000379 Rises=F Damp=F
 DIIS: error= 7.56D-07 at cycle   8 NSaved=   8.
 NSaved= 8 IEnMin= 8 EnMin= -232.036400373595     IErMin= 8 ErrMin= 7.56D-07
 ErrMax= 7.56D-07  0.00D+00 EMaxC= 1.00D-01 BMatC= 8.23D-11 BMatP= 1.46D-10
 IDIUse=1 WtCom= 1.00D+00 WtEn= 0.00D+00
 Coeff-Com:  0.368D-02-0.882D-01-0.222D-01-0.307D-01 0.220D-01 0.208D+00
 Coeff-Com:  0.430D+00 0.477D+00
 Coeff:      0.368D-02-0.882D-01-0.222D-01-0.307D-01 0.220D-01 0.208D+00
 Coeff:      0.430D+00 0.477D+00
 Gap=     0.034 Goal=   None    Shift=    0.000
 RMSDP=5.39D-07 MaxDP=5.56D-06 DE=-3.79D-10 OVMax= 3.90D-05

 Cycle  31  Pass 1  IDiag  1:
 E= -232.036400374082     Delta-E=       -0.000000000486 Rises=F Damp=F
 DIIS: error= 6.12D-07 at cycle   9 NSaved=   9.
 NSaved= 9 IEnMin= 9 EnMin= -232.036400374082     IErMin= 9 ErrMin= 6.12D-07
 ErrMax= 6.12D-07  0.00D+00 EMaxC= 1.00D-01 BMatC= 1.92D-11 BMatP= 8.23D-11
 IDIUse=1 WtCom= 1.00D+00 WtEn= 0.00D+00
 Coeff-Com:  0.287D-02-0.625D-01-0.118D-01-0.384D-01-0.229D-01 0.470D-01
 Coeff-Com:  0.209D+00 0.164D+00 0.713D+00
 Coeff:      0.287D-02-0.625D-01-0.118D-01-0.384D-01-0.229D-01 0.470D-01
 Coeff:      0.209D+00 0.164D+00 0.713D+00
 Gap=     0.034 Goal=   None    Shift=    0.000
 RMSDP=4.64D-07 MaxDP=4.84D-06 DE=-4.86D-10 OVMax= 3.27D-05

 Cycle  32  Pass 1  IDiag  1:
 E= -232.036400374321     Delta-E=       -0.000000000239 Rises=F Damp=F
 DIIS: error= 6.78D-07 at cycle  10 NSaved=  10.
 NSaved=10 IEnMin=10 EnMin= -232.036400374321     IErMin= 9 ErrMin= 6.12D-07
 ErrMax= 6.78D-07  0.00D+00 EMaxC= 1.00D-01 BMatC= 5.41D-11 BMatP= 1.92D-11
 IDIUse=1 WtCom= 1.00D+00 WtEn= 0.00D+00
 Coeff-Com:  0.146D-02-0.160D-01 0.432D-02-0.345D-01-0.385D-01-0.920D-01
 Coeff-Com: -0.686D-01-0.275D+00 0.112D+01 0.403D+00
 Coeff:      0.146D-02-0.160D-01 0.432D-02-0.345D-01-0.385D-01-0.920D-01
 Coeff:     -0.686D-01-0.275D+00 0.112D+01 0.403D+00
 Gap=     0.034 Goal=   None    Shift=    0.000
 RMSDP=5.54D-07 MaxDP=5.68D-06 DE=-2.39D-10 OVMax= 4.17D-05

 Cycle  33  Pass 1  IDiag  1:
 E= -232.036400374625     Delta-E=       -0.000000000304 Rises=F Damp=F
 DIIS: error= 5.84D-07 at cycle  11 NSaved=  11.
 NSaved=11 IEnMin=11 EnMin= -232.036400374625     IErMin=11 ErrMin= 5.84D-07
 ErrMax= 5.84D-07  0.00D+00 EMaxC= 1.00D-01 BMatC= 1.83D-11 BMatP= 1.92D-11
 IDIUse=1 WtCom= 1.00D+00 WtEn= 0.00D+00
 Coeff-Com:  0.545D-03 0.108D-02 0.882D-02-0.230D-01-0.124D-01-0.765D-01
 Coeff-Com: -0.108D+00-0.287D+00 0.733D+00 0.199D+00 0.565D+00
 Coeff:      0.545D-03 0.108D-02 0.882D-02-0.230D-01-0.124D-01-0.765D-01
 Coeff:     -0.108D+00-0.287D+00 0.733D+00 0.199D+00 0.565D+00
 Gap=     0.034 Goal=   None    Shift=    0.000
 RMSDP=3.28D-07 MaxDP=3.18D-06 DE=-3.04D-10 OVMax= 2.57D-05

 Cycle  34  Pass 1  IDiag  1:
 E= -232.036400374744     Delta-E=       -0.000000000119 Rises=F Damp=F
 DIIS: error= 7.26D-07 at cycle  12 NSaved=  12.
 NSaved=12 IEnMin=12 EnMin= -232.036400374744     IErMin=11 ErrMin= 5.84D-07
 ErrMax= 7.26D-07  0.00D+00 EMaxC= 1.00D-01 BMatC= 2.24D-11 BMatP= 1.83D-11
 IDIUse=1 WtCom= 1.00D+00 WtEn= 0.00D+00
 Coeff-Com: -0.835D-03 0.190D-01 0.125D-01-0.354D-02 0.468D-01 0.672D-02
 Coeff-Com: -0.964D-01-0.109D+00-0.176D+00-0.361D+00 0.772D+00 0.889D+00
 Coeff:     -0.835D-03 0.190D-01 0.125D-01-0.354D-02 0.468D-01 0.672D-02
 Coeff:     -0.964D-01-0.109D+00-0.176D+00-0.361D+00 0.772D+00 0.889D+00
 Gap=     0.034 Goal=   None    Shift=    0.000
 RMSDP=6.66D-07 MaxDP=6.26D-06 DE=-1.19D-10 OVMax= 5.34D-05

 Cycle  35  Pass 1  IDiag  1:
 E= -232.036400374969     Delta-E=       -0.000000000224 Rises=F Damp=F
 DIIS: error= 6.56D-07 at cycle  13 NSaved=  13.
 NSaved=13 IEnMin=13 EnMin= -232.036400374969     IErMin=11 ErrMin= 5.84D-07
 ErrMax= 6.56D-07  0.00D+00 EMaxC= 1.00D-01 BMatC= 1.61D-11 BMatP= 1.83D-11
 IDIUse=1 WtCom= 1.00D+00 WtEn= 0.00D+00
 Coeff-Com: -0.357D-03-0.620D-03 0.345D-02-0.343D-02 0.621D-01 0.827D-01
 Coeff-Com:  0.253D-01 0.270D+00-0.689D+00-0.620D+00-0.211D+00 0.943D+00
 Coeff-Com:  0.114D+01
 Coeff:     -0.357D-03-0.620D-03 0.345D-02-0.343D-02 0.621D-01 0.827D-01
 Coeff:      0.253D-01 0.270D+00-0.689D+00-0.620D+00-0.211D+00 0.943D+00
 Coeff:      0.114D+01
 Gap=     0.034 Goal=   None    Shift=    0.000
 RMSDP=7.94D-07 MaxDP=7.36D-06 DE=-2.24D-10 OVMax= 6.42D-05

 Cycle  36  Pass 1  IDiag  1:
 E= -232.036400375136     Delta-E=       -0.000000000168 Rises=F Damp=F
 DIIS: error= 3.68D-07 at cycle  14 NSaved=  14.
 NSaved=14 IEnMin=14 EnMin= -232.036400375136     IErMin=14 ErrMin= 3.68D-07
 ErrMax= 3.68D-07  0.00D+00 EMaxC= 1.00D-01 BMatC= 6.22D-12 BMatP= 1.61D-11
 IDIUse=1 WtCom= 1.00D+00 WtEn= 0.00D+00
 Coeff-Com:  0.446D-03-0.125D-01-0.104D-02-0.104D-01 0.188D-01 0.384D-01
 Coeff-Com:  0.561D-01 0.203D+00-0.245D+00-0.159D+00-0.515D+00 0.315D+00
 Coeff-Com:  0.398D+00 0.913D+00
 Coeff:      0.446D-03-0.125D-01-0.104D-02-0.104D-01 0.188D-01 0.384D-01
 Coeff:      0.561D-01 0.203D+00-0.245D+00-0.159D+00-0.515D+00 0.315D+00
 Coeff:      0.398D+00 0.913D+00
 Gap=     0.034 Goal=   None    Shift=    0.000
 RMSDP=3.08D-07 MaxDP=3.27D-06 DE=-1.68D-10 OVMax= 2.61D-05

 Cycle  37  Pass 1  IDiag  1:
 E= -232.036400375184     Delta-E=       -0.000000000047 Rises=F Damp=F
 DIIS: error= 4.86D-07 at cycle  15 NSaved=  15.
 NSaved=15 IEnMin=15 EnMin= -232.036400375184     IErMin=14 ErrMin= 3.68D-07
 ErrMax= 4.86D-07  0.00D+00 EMaxC= 1.00D-01 BMatC= 5.09D-12 BMatP= 6.22D-12
 IDIUse=1 WtCom= 1.00D+00 WtEn= 0.00D+00
 Coeff-Com:  0.655D-03-0.131D-01-0.221D-02-0.115D-01-0.908D-02-0.278D-03
 Coeff-Com:  0.398D-01 0.101D+00 0.511D-01 0.166D+00-0.471D+00-0.149D+00
 Coeff-Com: -0.331D+00 0.102D+01 0.606D+00
 Coeff:      0.655D-03-0.131D-01-0.221D-02-0.115D-01-0.908D-02-0.278D-03
 Coeff:      0.398D-01 0.101D+00 0.511D-01 0.166D+00-0.471D+00-0.149D+00
 Coeff:     -0.331D+00 0.102D+01 0.606D+00
 Gap=     0.034 Goal=   None    Shift=    0.000
 RMSDP=3.99D-07 MaxDP=4.17D-06 DE=-4.71D-11 OVMax= 3.24D-05

 Cycle  38  Pass 1  IDiag  1:
 E= -232.036400375219     Delta-E=       -0.000000000035 Rises=F Damp=F
 DIIS: error= 1.56D-07 at cycle  16 NSaved=  16.
 NSaved=16 IEnMin=16 EnMin= -232.036400375219     IErMin=16 ErrMin= 1.56D-07
 ErrMax= 1.56D-07  0.00D+00 EMaxC= 1.00D-01 BMatC= 7.96D-13 BMatP= 5.09D-12
 IDIUse=1 WtCom= 1.00D+00 WtEn= 0.00D+00
 Coeff-Com:  0.235D-03-0.247D-02 0.295D-04-0.428D-02-0.587D-02-0.115D-01
 Coeff-Com: -0.150D-01-0.250D-01 0.110D+00 0.135D+00 0.320D-01-0.151D+00
 Coeff-Com: -0.315D+00 0.300D-01 0.188D+00 0.103D+01
 Coeff:      0.235D-03-0.247D-02 0.295D-04-0.428D-02-0.587D-02-0.115D-01
 Coeff:     -0.150D-01-0.250D-01 0.110D+00 0.135D+00 0.320D-01-0.151D+00
 Coeff:     -0.315D+00 0.300D-01 0.188D+00 0.103D+01
 Gap=     0.034 Goal=   None    Shift=    0.000
 RMSDP=1.28D-07 MaxDP=1.50D-06 DE=-3.50D-11 OVMax= 1.04D-05

 Cycle  39  Pass 1  IDiag  1:
 E= -232.036400375212     Delta-E=        0.000000000007 Rises=F Damp=F
 DIIS: error= 6.41D-08 at cycle  17 NSaved=  17.
 NSaved=17 IEnMin=16 EnMin= -232.036400375219     IErMin=17 ErrMin= 6.41D-08
 ErrMax= 6.41D-08  0.00D+00 EMaxC= 1.00D-01 BMatC= 1.46D-13 BMatP= 7.96D-13
 IDIUse=1 WtCom= 1.00D+00 WtEn= 0.00D+00
 Coeff-Com: -0.556D-04 0.152D-02 0.144D-03 0.195D-03 0.491D-02 0.388D-03
 Coeff-Com: -0.120D-01-0.787D-02-0.286D-01-0.473D-02 0.548D-01 0.426D-01
 Coeff-Com:  0.348D-01-0.165D+00-0.110D+00 0.687D-01 0.112D+01
 Coeff:     -0.556D-04 0.152D-02 0.144D-03 0.195D-03 0.491D-02 0.388D-03
 Coeff:     -0.120D-01-0.787D-02-0.286D-01-0.473D-02 0.548D-01 0.426D-01
 Coeff:      0.348D-01-0.165D+00-0.110D+00 0.687D-01 0.112D+01
 Gap=     0.034 Goal=   None    Shift=    0.000
 RMSDP=5.36D-08 MaxDP=5.99D-07 DE= 6.93D-12 OVMax= 4.43D-06

 Cycle  40  Pass 1  IDiag  1:
 E= -232.036400375220     Delta-E=       -0.000000000008 Rises=F Damp=F
 DIIS: error= 2.57D-08 at cycle  18 NSaved=  18.
 NSaved=18 IEnMin=18 EnMin= -232.036400375220     IErMin=18 ErrMin= 2.57D-08
 ErrMax= 2.57D-08  0.00D+00 EMaxC= 1.00D-01 BMatC= 3.15D-14 BMatP= 1.46D-13
 IDIUse=1 WtCom= 1.00D+00 WtEn= 0.00D+00
 Large coefficients: NSaved= 18 BigCof=    0.00 CofMax=   10.00 Det=-2.96D-15
 Inversion failed.  Reducing to 17 matrices.
 Large coefficients: NSaved= 17 BigCof=    0.00 CofMax=   10.00 Det=-3.00D-15
 Inversion failed.  Reducing to 16 matrices.
 Large coefficients: NSaved= 16 BigCof=    0.00 CofMax=   10.00 Det=-3.08D-15
 Inversion failed.  Reducing to 15 matrices.
 Coeff-Com:  0.488D-03 0.334D-02 0.438D-02 0.167D-02 0.108D-01-0.442D-01
 Coeff-Com: -0.241D-01-0.340D-02 0.408D-01 0.888D-01-0.255D-01-0.487D-01
 Coeff-Com: -0.251D+00 0.103D+00 0.114D+01
 Coeff:      0.488D-03 0.334D-02 0.438D-02 0.167D-02 0.108D-01-0.442D-01
 Coeff:     -0.241D-01-0.340D-02 0.408D-01 0.888D-01-0.255D-01-0.487D-01
 Coeff:     -0.251D+00 0.103D+00 0.114D+01
 Gap=     0.034 Goal=   None    Shift=    0.000
 RMSDP=9.62D-09 MaxDP=1.18D-07 DE=-8.13D-12 OVMax= 5.79D-07

 SCF Done:  E(RB3LYP) =  -232.036400375     A.U. after   40 cycles
            NFock= 40  Conv=0.96D-08     -V/T= 2.0128
 KE= 2.291150993487D+02 PE=-8.714979641346D+02 EE= 2.435602527632D+02
 Leave Link  502 at Thu Mar 19 17:30:06 2026, MaxMem=   536870912 cpu:        25.0
 (Enter C:\G09W\l601.exe)
 Copying SCF densities to generalized density rwf, IOpCl= 0 IROHF=0.

 **********************************************************************

            Population analysis using the SCF density.

 **********************************************************************

 Orbital symmetries:
       Occupied  (A) (A) (A) (A) (A) (A) (A) (A) (A) (A) (A) (A)
                 (A) (A) (A) (A) (A) (A) (A) (A) (A)
       Virtual   (A) (A) (A) (A) (A) (A) (A) (A) (A) (A) (A) (A)
                 (A) (A) (A) (A) (A) (A) (A) (A) (A) (A) (A) (A)
                 (A) (A) (A) (A) (A) (A) (A) (A) (A) (A) (A) (A)
                 (A) (A) (A) (A) (A) (A) (A) (A) (A) (A) (A) (A)
                 (A) (A) (A) (A) (A) (A) (A) (A) (A) (A) (A) (A)
                 (A) (A) (A) (A) (A) (A) (A) (A) (A) (A) (A) (A)
                 (A) (A)
 The electronic state is 1-A.
 Alpha  occ. eigenvalues --  -19.27956 -10.37259 -10.36978 -10.35322 -10.33666
 Alpha  occ. eigenvalues --   -1.04423  -0.72585  -0.64962  -0.62620  -0.59270
 Alpha  occ. eigenvalues --   -0.50275  -0.47343  -0.45176  -0.39448  -0.38196
 Alpha  occ. eigenvalues --   -0.33369  -0.28900  -0.28373  -0.26292  -0.24026
 Alpha  occ. eigenvalues --   -0.22796
 Alpha virt. eigenvalues --   -0.19373  -0.17700  -0.16404  -0.13937  -0.11759
 Alpha virt. eigenvalues --   -0.11255  -0.10552  -0.08550  -0.03876  -0.00746
 Alpha virt. eigenvalues --    0.01143   0.04261   0.05922   0.09221   0.48815
 Alpha virt. eigenvalues --    0.49231   0.51024   0.51510   0.52254   0.53728
 Alpha virt. eigenvalues --    0.54670   0.58319   0.59895   0.61587   0.63659
 Alpha virt. eigenvalues --    0.65228   0.66484   0.71818   0.75499   0.76377
 Alpha virt. eigenvalues --    0.79652   0.79868   0.80707   0.84676   0.86348
 Alpha virt. eigenvalues --    0.89037   0.94338   0.96849   0.99463   1.03977
 Alpha virt. eigenvalues --    1.13233   1.15979   1.21195   1.28774   1.49397
 Alpha virt. eigenvalues --    1.53564   1.57644   1.58799   1.61619   1.62531
 Alpha virt. eigenvalues --    1.63759   1.64920   1.65848   1.66117   1.68979
 Alpha virt. eigenvalues --    1.69658   1.71456   1.74257   1.75591   1.76957
 Alpha virt. eigenvalues --    1.79921   1.83682   1.85853   1.87645   1.89655
 Alpha virt. eigenvalues --    1.93783   2.05512   2.22212   2.25877   3.71529
 Alpha virt. eigenvalues --    3.89818   3.92527   3.96111   4.08625
          Condensed to atoms (all electrons):
               1          2          3          4          5          6
     1  C    5.811134  -0.023153  -0.019087   0.003494  -0.019184   0.062831
     2  C   -0.023153   6.041943  -0.028675   0.059497   0.025543   0.015998
     3  O   -0.019087  -0.028675   8.955192  -0.070251  -0.032615  -0.036353
     4  C    0.003494   0.059497  -0.070251   6.083446   0.026528  -0.009232
     5  C   -0.019184   0.025543  -0.032615   0.026528   5.874645  -0.003350
     6  H    0.062831   0.015998  -0.036353  -0.009232  -0.003350   0.631969
     7  H    0.179731   0.004201  -0.019997  -0.000925   0.004820  -0.011297
     8  H    0.002947  -0.026293  -0.033031   0.098514   0.003113   0.003211
     9  H    0.000074  -0.011112  -0.007190  -0.025722   0.000371  -0.000016
    10  H    0.067876   0.025785  -0.048772  -0.013768   0.052032  -0.009843
    11  H   -0.003325   0.001545  -0.041961  -0.037250  -0.009133   0.121189
    12  H   -0.000010   0.038608   0.002381   0.051263  -0.010666  -0.000066
    13  H    0.000057   0.025400   0.000141  -0.040808  -0.013246  -0.000066
    14  H    0.000484  -0.035302  -0.003254   0.043863   0.120922   0.000206
    15  H   -0.002383  -0.021153  -0.051704   0.044654   0.050454   0.010548
               7          8          9         10         11         12
     1  C    0.179731   0.002947   0.000074   0.067876  -0.003325  -0.000010
     2  C    0.004201  -0.026293  -0.011112   0.025785   0.001545   0.038608
     3  O   -0.019997  -0.033031  -0.007190  -0.048772  -0.041961   0.002381
     4  C   -0.000925   0.098514  -0.025722  -0.013768  -0.037250   0.051263
     5  C    0.004820   0.003113   0.000371   0.052032  -0.009133  -0.010666
     6  H   -0.011297   0.003211  -0.000016  -0.009843   0.121189  -0.000066
     7  H    0.648898  -0.008759   0.000404  -0.013603   0.001728   0.000904
     8  H   -0.008759   0.645815   0.114093   0.010987  -0.000004  -0.004130
     9  H    0.000404   0.114093   1.028893   0.000690   0.000083   0.043678
    10  H   -0.013603   0.010987   0.000690   0.746239   0.002234   0.001710
    11  H    0.001728  -0.000004   0.000083   0.002234   0.969205   0.000184
    12  H    0.000904  -0.004130   0.043678   0.001710   0.000184   0.605368
    13  H   -0.000015  -0.000710  -0.001869   0.002675   0.000001   0.091296
    14  H   -0.000430  -0.001103   0.003032   0.003338   0.001133  -0.001554
    15  H    0.008619  -0.008576   0.000137   0.007957   0.110715   0.001759
              13         14         15
     1  C    0.000057   0.000484  -0.002383
     2  C    0.025400  -0.035302  -0.021153
     3  O    0.000141  -0.003254  -0.051704
     4  C   -0.040808   0.043863   0.044654
     5  C   -0.013246   0.120922   0.050454
     6  H   -0.000066   0.000206   0.010548
     7  H   -0.000015  -0.000430   0.008619
     8  H   -0.000710  -0.001103  -0.008576
     9  H   -0.001869   0.003032   0.000137
    10  H    0.002675   0.003338   0.007957
    11  H    0.000001   0.001133   0.110715
    12  H    0.091296  -0.001554   0.001759
    13  H    0.952819   0.042449   0.002031
    14  H    0.042449   0.674554  -0.007860
    15  H    0.002031  -0.007860   0.667262
 Mulliken charges:
               1
     1  C   -0.061485
     2  C   -0.092832
     3  O   -0.564822
     4  C   -0.213302
     5  C   -0.070234
     6  H    0.224271
     7  H    0.205721
     8  H    0.203927
     9  H   -0.145545
    10  H    0.164464
    11  H   -0.116344
    12  H    0.179274
    13  H   -0.060154
    14  H    0.159523
    15  H    0.187539
 Sum of Mulliken charges =   0.00000
 Mulliken charges with hydrogens summed into heavy atoms:
               1
     1  C   -0.061485
     2  C   -0.298531
     3  O    0.304755
     4  C    0.125495
     5  C   -0.070234
 Electronic spatial extent (au):  <R**2>=            622.2230
 Charge=              0.0000 electrons
 Dipole moment (field-independent basis, Debye):
    X=              1.1030    Y=              0.0462    Z=             -1.1535  Tot=              1.5967
 Quadrupole moment (field-independent basis, Debye-Ang):
   XX=            -44.9168   YY=            -45.9746   ZZ=            -43.6205
   XY=             -2.8029   XZ=              0.9221   YZ=             -1.2628
 Traceless Quadrupole moment (field-independent basis, Debye-Ang):
   XX=             -0.0795   YY=             -1.1373   ZZ=              1.2168
   XY=             -2.8029   XZ=              0.9221   YZ=             -1.2628
 Octapole moment (field-independent basis, Debye-Ang**2):
  XXX=             22.2804  YYY=              1.6018  ZZZ=             -3.2081  XYY=              6.8203
  XXY=              1.4592  XXZ=              0.0503  XZZ=              4.9274  YZZ=              1.3287
  YYZ=             -5.3031  XYZ=             -2.0863
 Hexadecapole moment (field-independent basis, Debye-Ang**3):
 XXXX=           -607.8137 YYYY=           -304.2149 ZZZZ=           -236.4873 XXXY=            -16.2859
 XXXZ=              2.2075 YYYX=            -24.0532 YYYZ=             -5.6100 ZZZX=             -0.7574
 ZZZY=             -7.3298 XXYY=           -154.0589 XXZZ=           -139.9337 YYZZ=            -95.4065
 XXYZ=              2.7133 YYXZ=              4.0968 ZZXY=            -15.0799
 N-N= 1.667862116476D+02 E-N=-8.714979636185D+02  KE= 2.291150993487D+02
 No NMR shielding tensors so no spin-rotation constants.
 Leave Link  601 at Thu Mar 19 17:30:06 2026, MaxMem=   536870912 cpu:         0.0
 (Enter C:\G09W\l701.exe)
 Compute integral first derivatives.
 ... and contract with generalized density number  0.
 Leave Link  701 at Thu Mar 19 17:30:07 2026, MaxMem=   536870912 cpu:         1.0
 (Enter C:\G09W\l702.exe)
 L702 exits ... SP integral derivatives will be done elsewhere.
 Leave Link  702 at Thu Mar 19 17:30:07 2026, MaxMem=   536870912 cpu:         0.0
 (Enter C:\G09W\l703.exe)
 Compute integral first derivatives, UseDBF=F ICtDFT=           0.
 Integral derivatives from FoFJK, PRISM(SPDF).
 Calling FoFJK, ICntrl=      2127 FMM=F ISym2X=0 I1Cent= 0 IOpClX= 0 NMat=1 NMatS=1 NMatT=0.
 FoFJK:  IHMeth= 1 ICntrl=    2127 DoSepK=F KAlg= 0 I1Cent=   0 FoldK=F
 IRaf=         0 NMat=   1 IRICut=       1 DoRegI=T DoRafI=F ISym2E= 0.
 FoFCou: FMM=F IPFlag=           0 FMFlag=      100000 FMFlg1=         800
         NFxFlg=           0 DoJE=F BraDBF=F KetDBF=F FulRan=T
         wScrn=  0.000000 ICntrl=    2127 IOpCl=  0 I1Cent=           0 NGrid=           0
         NMat0=    1 NMatS0=      1 NMatT0=    0 NMatD0=    1 NMtDS0=    0 NMtDT0=    0
 Symmetry not used in FoFCou.
 Leave Link  703 at Thu Mar 19 17:30:10 2026, MaxMem=   536870912 cpu:         2.0
 (Enter C:\G09W\l716.exe)
 Dipole        = 4.33968496D-01 1.81865277D-02-4.53817942D-01
 ***** Axes restored to original set *****
 -------------------------------------------------------------------
 Center     Atomic                   Forces (Hartrees/Bohr)
 Number     Number              X              Y              Z
 -------------------------------------------------------------------
      1        6          -0.027673060   -0.074887262   -0.039904870
      2        6          -0.030617340   -0.011487326    0.020694968
      3        8           0.022418147    0.011530346    0.010386145
      4        6           0.030949990    0.037103224   -0.034635198
      5        6          -0.004515228   -0.053451107   -0.057180885
      6        1           0.020282280   -0.022749691   -0.000733029
      7        1           0.020260318    0.056841238    0.041132895
      8        1          -0.031257448   -0.013203795   -0.002750463
      9        1          -0.001549576    0.015699192    0.020596954
     10        1          -0.020447519    0.017792237   -0.004721375
     11        1           0.007960411    0.030200297   -0.014058250
     12        1          -0.011489859    0.013357127    0.012444226
     13        1           0.027946359   -0.006411395    0.004517920
     14        1           0.013640967    0.011425133    0.040220808
     15        1          -0.015908443   -0.011758218    0.003990156
 -------------------------------------------------------------------
 Cartesian Forces:  Max     0.074887262 RMS     0.027310062
 Leave Link  716 at Thu Mar 19 17:30:11 2026, MaxMem=   536870912 cpu:         0.0
 (Enter C:\G09W\l103.exe)

 GradGradGradGradGradGradGradGradGradGradGradGradGradGradGradGradGradGrad
 Berny optimization.
 FormGI is forming the generalized inverse of G from B-inverse, IUseBI=4.
 Internal  Forces:  Max     0.098444527 RMS     0.013234616
 Search for a local minimum.
 Step number   1 out of a maximum of  100
 All quantities printed in internal units (Hartrees-Bohrs-Radians)
 RMS Force = .13235D-01 SwitMx=.10000D-02 MixMth= 1
 Mixed Optimization -- RFO/linear search
 Second derivative matrix not updated -- first step.
 ITU=  0
     Eigenvalues ---    0.00230   0.00886   0.00991   0.01032   0.01244
     Eigenvalues ---    0.01498   0.01623   0.02298   0.02841   0.03029
     Eigenvalues ---    0.03551   0.04190   0.04377   0.04766   0.04839
     Eigenvalues ---    0.04969   0.05016   0.06056   0.06315   0.06544
     Eigenvalues ---    0.06978   0.07561   0.07628   0.07671   0.08057
     Eigenvalues ---    0.08215   0.08372   0.09078   0.09119   0.09483
     Eigenvalues ---    0.09774   0.10053   0.10186   0.10359   0.10883
     Eigenvalues ---    0.11669   0.11767   0.13315   0.24873
 RFO step:  Lambda=-1.17226229D-01 EMin= 2.30000000D-03
 Linear search not attempted -- first point.
 Maximum step size (   0.300) exceeded in Quadratic search.
    -- Step size scaled by   0.442
 Iteration  1 RMS(Cart)=  0.03963534 RMS(Int)=  0.00257540
 Iteration  2 RMS(Cart)=  0.00270066 RMS(Int)=  0.00009877
 Iteration  3 RMS(Cart)=  0.00001624 RMS(Int)=  0.00009849
 Iteration  4 RMS(Cart)=  0.00000000 RMS(Int)=  0.00009849
 ITry= 1 IFail=0 DXMaxC= 3.38D-01 DCOld= 1.00D+10 DXMaxT= 3.00D-01 DXLimC= 3.00D+00 Rises=F
 Variable       Old X    -DE/DX   Delta X   Delta X   Delta X     New X
                                 (Linear)    (Quad)   (Total)
    R1        3.02111  -0.08307   0.00000  -0.17627  -0.17627   2.84484
    R2        3.20520  -0.01606   0.00000  -0.03558  -0.03557   3.16963
    R3        3.18615  -0.02568   0.00000  -0.05806  -0.05809   3.12806
    R4        2.70469  -0.00961   0.00000  -0.01698  -0.01698   2.68771
    R5        2.92443  -0.00925   0.00000  -0.01870  -0.01870   2.90574
    R6        2.97311  -0.00196   0.00000  -0.00256  -0.00255   2.97056
    R7        2.94693   0.01472   0.00000   0.03000   0.02993   2.97686
    R8        2.80379  -0.00718   0.00000  -0.01214  -0.01204   2.79175
    R9        3.12093  -0.01432   0.00000  -0.03152  -0.03151   3.08942
   R10        3.16900  -0.01894   0.00000  -0.04503  -0.04496   3.12404
   R11        3.08239  -0.01739   0.00000  -0.03836  -0.03849   3.04390
   R12        3.20807  -0.00942   0.00000  -0.02152  -0.02171   3.18636
   R13        3.20734  -0.01619   0.00000  -0.04121  -0.04125   3.16609
   R14        3.14953  -0.04452   0.00000  -0.10050  -0.10033   3.04920
   R15        3.35881  -0.01394   0.00000  -0.03559  -0.03545   3.32336
   R16        3.48169  -0.01969   0.00000  -0.05703  -0.05703   3.42466
   R17        3.53593  -0.00866   0.00000  -0.02401  -0.02406   3.51187
   R18        3.06964  -0.02213   0.00000  -0.05935  -0.05935   3.01029
   R19        3.35006  -0.02048   0.00000  -0.05598  -0.05590   3.29417
   R20        3.43728  -0.00461   0.00000  -0.01540  -0.01548   3.42180
    A1        2.43384   0.01141   0.00000   0.02242   0.02240   2.45623
    A2        1.88931  -0.01284   0.00000  -0.03030  -0.03040   1.85892
    A3        2.50638  -0.00202   0.00000  -0.00956  -0.00957   2.49681
    A4        1.49503   0.00606   0.00000   0.01847   0.01868   1.51371
    A5        1.20470   0.00282   0.00000   0.00513   0.00545   1.21015
    A6        1.74586   0.01324   0.00000   0.03228   0.03238   1.77824
    A7        1.47675   0.00254   0.00000   0.00620   0.00651   1.48326
    A8        2.09497  -0.00681   0.00000  -0.01420  -0.01443   2.08054
    A9        1.39885  -0.00227   0.00000  -0.00518  -0.00529   1.39356
   A10        1.76984  -0.00884   0.00000  -0.02265  -0.02270   1.74715
   A11        1.21536   0.00453   0.00000   0.00932   0.00935   1.22470
   A12        1.92146   0.00533   0.00000   0.01074   0.01080   1.93226
   A13        1.25684   0.00122   0.00000   0.00405   0.00407   1.26092
   A14        1.23479   0.00162   0.00000   0.00219   0.00225   1.23704
   A15        2.17059   0.00258   0.00000   0.00518   0.00513   2.17573
   A16        1.51536  -0.00139   0.00000  -0.00382  -0.00391   1.51145
   A17        1.71314   0.00588   0.00000   0.01231   0.01228   1.72542
   A18        1.48923   0.00431   0.00000   0.01039   0.01035   1.49959
   A19        1.45216   0.00679   0.00000   0.01603   0.01609   1.46825
   A20        1.39901  -0.09844   0.00000  -0.11887  -0.11885   1.28016
   A21        1.69286   0.00027   0.00000   0.00028   0.00028   1.69314
   A22        2.55975  -0.00164   0.00000  -0.00499  -0.00506   2.55469
   A23        1.79808  -0.00072   0.00000  -0.00070  -0.00066   1.79741
   A24        1.07443   0.00234   0.00000   0.00708   0.00707   1.08150
   A25        1.37715  -0.00136   0.00000  -0.00271  -0.00261   1.37455
   A26        1.59508  -0.01149   0.00000  -0.02457  -0.02450   1.57058
   A27        1.51658  -0.00067   0.00000   0.00058   0.00053   1.51710
   A28        1.60577  -0.00446   0.00000  -0.00813  -0.00810   1.59767
   A29        1.75003   0.00501   0.00000   0.01022   0.01024   1.76027
   A30        1.62527  -0.00484   0.00000  -0.01253  -0.01249   1.61277
   A31        1.75995  -0.00341   0.00000  -0.00884  -0.00888   1.75107
   A32        1.78170   0.00552   0.00000   0.01437   0.01442   1.79612
   A33        2.66932  -0.00088   0.00000  -0.00161  -0.00168   2.66764
   A34        1.12474  -0.00133   0.00000  -0.00190  -0.00196   1.12278
   A35        1.71509   0.00413   0.00000   0.00841   0.00850   1.72359
   A36        1.77969  -0.00129   0.00000  -0.00400  -0.00413   1.77556
   A37        2.68415  -0.00425   0.00000  -0.00811  -0.00809   2.67605
   A38        1.72068   0.00043   0.00000   0.00024   0.00030   1.72098
[...]
 Lowest energy point so far.  Saving SCF results.
 GradGradGradGradGradGradGradGradGradGradGradGradGradGradGradGradGradGrad

 Leave Link  103 at Thu Mar 19 17:37:53 2026, MaxMem=   536870912 cpu:         0.0
 (Enter C:\G09W\l202.exe)
                          Input orientation:                          
 ---------------------------------------------------------------------
 Center     Atomic      Atomic             Coordinates (Angstroms)
 Number     Number       Type             X           Y           Z
 ---------------------------------------------------------------------
      1          6           0        2.676870    0.875792    1.218525
      2          6           0       -0.591094    0.386110   -1.902336
      3          8           0        1.723803    0.316246    0.714758
      4          6           0       -1.023511   -0.858359   -0.763756
      5          6           0       -1.529492    0.410106   -0.333803
      6          1           0        2.567679    1.415280    2.206021
      7          1           0        3.682837    0.892238    0.793123
      8          1           0       -0.008545   -0.952937   -0.322007
      9          1           0       -1.347172   -1.933664   -1.123140
     10          1           0       -0.695000    0.930564    0.083132
     11          1           0       -0.168512   -1.266089    2.305123
     12          1           0       -1.323678   -0.594298   -1.985086
     13          1           0       -1.297702    0.608680   -2.737892
     14          1           0       -2.314658    0.777286   -0.920068
     15          1           0       -0.351823   -1.006956    1.627127
 ---------------------------------------------------------------------
                    Distance matrix (angstroms):
                    1          2          3          4          5
     1  C    0.000000
     2  C    4.545234   0.000000
     3  O    1.214583   3.494683   0.000000
     4  C    4.541975   1.741279   3.333681   0.000000
     5  C    4.507779   1.827967   3.419388   1.431740   0.000000
     6  H    1.130539   5.283525   2.035650   5.185138   4.924215
     7  H    1.092340   5.078203   2.043459   5.257202   5.354511
     8  H    3.595684   2.151708   2.384688   1.110965   2.042377
     9  H    5.437771   2.561280   4.227392   1.179065   2.479829
    10  H    3.558318   2.061386   2.574285   2.006336   1.068217
    11  H    3.723513   4.539940   2.934945   3.211742   3.409667
    12  H    5.331855   1.226673   4.171976   1.285098   1.943688
    13  H    5.614429   1.116686   4.597369   2.474793   2.423387
    14  H    5.431265   2.022015   4.381139   2.089695   1.046429
    15  H    3.589524   3.801972   2.625167   2.487884   2.690765
                    6          7          8          9         10
     6  H    0.000000
     7  H    1.874415   0.000000
     8  H    4.316979   4.274867   0.000000
     9  H    6.133906   6.079373   1.842705   0.000000
    10  H    3.922586   4.435202   2.045222   3.175567   0.000000
    11  H    3.832271   4.666627   2.650560   3.686175   3.168551
    12  H    6.061884   5.915524   2.150355   1.592923   2.645367
    13  H    6.327247   6.111812   3.152313   3.012206   2.902592
    14  H    5.832382   6.238445   2.944402   2.885571   1.911334
    15  H    3.837426   4.536627   1.979869   3.068139   2.501135
                   11         12         13         14         15
    11  H    0.000000
    12  H    4.493507   0.000000
    13  H    5.497439   1.419348   0.000000
    14  H    4.379861   1.999387   2.089764   0.000000
    15  H    0.748620   3.763359   4.749564   3.677559   0.000000
 Stoichiometry    C4H10O
 Framework group  C1[X(C4H10O)]
 Deg. of freedom    39
 Full point group                 C1      NOp   1
 RotChk:  IX=3 Diff= 3.06D-03
 Largest Abelian subgroup         C1      NOp   1
 Largest concise Abelian subgroup C1      NOp   1
                         Standard orientation:                         
 ---------------------------------------------------------------------
 Center     Atomic      Atomic             Coordinates (Angstroms)
 Number     Number       Type             X           Y           Z
 ---------------------------------------------------------------------
      1          6           0        2.864163    0.299889    0.069953
      2          6           0       -1.593488    1.161538   -0.144668
      3          8           0        1.708708    0.018170   -0.176564
      4          6           0       -1.558881   -0.534212   -0.538733
      5          6           0       -1.522217   -0.350121    0.880649
      6          1           0        3.398918   -0.186199    0.939364
      7          1           0        3.469059    1.001082   -0.509386
      8          1           0       -0.500912   -0.541046   -0.877699
      9          1           0       -2.208338   -0.973166   -1.419483
     10          1           0       -0.518097   -0.068619    1.112137
     11          1           0        0.721291   -2.742822   -0.050735
     12          1           0       -2.415291    0.415342   -0.666740
     13          1           0       -2.585683    1.648233    0.015531
     14          1           0       -2.420015   -0.000439    1.288932
     15          1           0        0.251945   -2.160280   -0.022615
 ---------------------------------------------------------------------
 Rotational constants (GHZ):      8.3717086      1.6751688      1.5774813
 Leave Link  202 at Thu Mar 19 17:37:53 2026, MaxMem=   536870912 cpu:         0.0
 (Enter C:\G09W\l301.exe)
 Standard basis: 6-31G(d) (6D, 7F)
 Ernie: Thresh=  0.10000D-02 Tol=  0.10000D-05 Strict=F.
 There are    95 symmetry adapted cartesian basis functions of A   symmetry.
 There are    95 symmetry adapted basis functions of A   symmetry.
    95 basis functions,   180 primitive gaussians,    95 cartesian basis functions
    21 alpha electrons       21 beta electrons
       nuclear repulsion energy       169.7660029850 Hartrees.
 IExCor=  402 DFT=T Ex+Corr=B3LYP ExCW=0 ScaHFX=  0.200000
 ScaDFX=  0.800000  0.720000  1.000000  0.810000 ScalE2=  1.000000  1.000000
 IRadAn=      0 IRanWt=     -1 IRanGd=            0 ICorTp=0 IEmpDi=  4
 NAtoms=   15 NActive=   15 NUniq=   15 SFac= 1.00D+00 NAtFMM=   60 NAOKFM=F Big=F
 Integral buffers will be    131072 words long.
 Raffenetti 2 integral format.
 Two-electron integral symmetry is turned on.
 Leave Link  301 at Thu Mar 19 17:37:54 2026, MaxMem=   536870912 cpu:         0.0
 (Enter C:\G09W\l302.exe)
 NPDir=0 NMtPBC=     1 NCelOv=     1 NCel=       1 NClECP=     1 NCelD=      1
         NCelK=      1 NCelE2=     1 NClLst=     1 CellRange=     0.0.
 One-electron integrals computed using PRISM.
 NBasis=    95 RedAO= T EigKep=  4.85D-03  NBF=    95
 NBsUse=    95 1.00D-06 EigRej= -1.00D+00 NBFU=    95
 Precomputing XC quadrature grid using
 IXCGrd= 4 IRadAn=           0 IRanWt=          -1 IRanGd=           0 AccXCQ= 0.00D+00.
 Generated NRdTot=       0 NPtTot=           0 NUsed=           0 NTot=          32
 NSgBfM=    95    95    95    95    95 MxSgAt=    15 MxSgA2=    15.
 Leave Link  302 at Thu Mar 19 17:37:54 2026, MaxMem=   536870912 cpu:         0.0
 (Enter C:\G09W\l303.exe)
 DipDrv:  MaxL=1.
 Leave Link  303 at Thu Mar 19 17:37:54 2026, MaxMem=   536870912 cpu:         0.0
 (Enter C:\G09W\l401.exe)
 Initial guess from the checkpoint file:  "diethyl_ether_xtb.chk"
 B after Tr=     0.000000    0.000000    0.000000
         Rot=    0.999999   -0.000760    0.000435    0.000491 Ang=  -0.12 deg.
 Guess basis will be translated and rotated to current coordinates.
 JPrj=2 DoOrth=T DoCkMO=T.
 Generating alternative initial guess.
 ExpMin= 1.61D-01 ExpMax= 5.48D+03 ExpMxC= 8.25D+02 IAcc=1 IRadAn=         1 AccDes= 0.00D+00
 Harris functional with IExCor=  402 and IRadAn=       1 diagonalized for initial guess.
 HarFok:  IExCor=  402 AccDes= 0.00D+00 IRadAn=         1 IDoV= 1 UseB2=F ITyADJ=14
 ICtDFT=  3500011 ScaDFX=  1.000000  1.000000  1.000000  1.000000
 FoFCou: FMM=F IPFlag=           0 FMFlag=      100000 FMFlg1=           0
         NFxFlg=           0 DoJE=T BraDBF=F KetDBF=T FulRan=T
         wScrn=  0.000000 ICntrl=     500 IOpCl=  0 I1Cent=   200000004 NGrid=           0
         NMat0=    1 NMatS0=      1 NMatT0=    0 NMatD0=    1 NMtDS0=    0 NMtDT0=    0
 Petite list used in FoFCou.
 Harris En= -233.351790825540    
 Leave Link  401 at Thu Mar 19 17:37:56 2026, MaxMem=   536870912 cpu:         1.0
 (Enter C:\G09W\l502.exe)
 Closed shell SCF:
 Using DIIS extrapolation, IDIIS=  1040.
 Integral symmetry usage will be decided dynamically.
 Keep R1 ints in memory in canonical form, NReq=11361312.
 IVT=       46930 IEndB=       46930 NGot=   536870912 MDV=   526424903
 LenX=   526424903 LenY=   526415437
 Requested convergence on RMS density matrix=1.00D-08 within 128 cycles.
 Requested convergence on MAX density matrix=1.00D-06.
 Requested convergence on             energy=1.00D-06.
 No special actions if energy rises.
 FoFCou: FMM=F IPFlag=           0 FMFlag=           0 FMFlg1=           0
         NFxFlg=           0 DoJE=F BraDBF=F KetDBF=F FulRan=T
         wScrn=  0.000000 ICntrl=     600 IOpCl=  0 I1Cent=           0 NGrid=           0
         NMat0=    1 NMatS0=   4560 NMatT0=    0 NMatD0=    1 NMtDS0=    0 NMtDT0=    0
 Symmetry not used in FoFCou.
 Integral accuracy reduced to 1.0D-05 until final iterations.

 Cycle   1  Pass 0  IDiag  1:
 E= -233.316555670407    
 DIIS: error= 7.39D-04 at cycle   1 NSaved=   1.
 NSaved= 1 IEnMin= 1 EnMin= -233.316555670407     IErMin= 1 ErrMin= 7.39D-04
 ErrMax= 7.39D-04  0.00D+00 EMaxC= 1.00D-01 BMatC= 1.41D-04 BMatP= 1.41D-04
 IDIUse=3 WtCom= 9.93D-01 WtEn= 7.39D-03
 Coeff-Com:  0.100D+01
 Coeff-En:   0.100D+01
 Coeff:      0.100D+01
 Gap=     1.515 Goal=   None    Shift=    0.000
 RMSDP=2.67D-04 MaxDP=3.53D-03              OVMax= 5.02D-03

 Cycle   2  Pass 0  IDiag  1:
 E= -233.316755448259     Delta-E=       -0.000199777852 Rises=F Damp=F
 DIIS: error= 8.29D-04 at cycle   2 NSaved=   2.
 NSaved= 2 IEnMin= 2 EnMin= -233.316755448259     IErMin= 1 ErrMin= 7.39D-04
 ErrMax= 8.29D-04  0.00D+00 EMaxC= 1.00D-01 BMatC= 4.21D-05 BMatP= 1.41D-04
 IDIUse=3 WtCom= 9.92D-01 WtEn= 8.29D-03
 Coeff-Com:  0.278D+00 0.722D+00
 Coeff-En:   0.000D+00 0.100D+01
 Coeff:      0.276D+00 0.724D+00
 Gap=     0.130 Goal=   None    Shift=    0.000
 RMSDP=1.45D-04 MaxDP=3.09D-03 DE=-2.00D-04 OVMax= 5.60D-03

 Cycle   3  Pass 0  IDiag  1:
 E= -233.316734046575     Delta-E=        0.000021401684 Rises=F Damp=F
 DIIS: error= 1.17D-03 at cycle   3 NSaved=   3.
 NSaved= 3 IEnMin= 2 EnMin= -233.316755448259     IErMin= 1 ErrMin= 7.39D-04
 ErrMax= 1.17D-03  0.00D+00 EMaxC= 1.00D-01 BMatC= 6.07D-05 BMatP= 4.21D-05
 IDIUse=3 WtCom= 2.26D-01 WtEn= 7.74D-01
 Coeff-Com: -0.218D-01 0.553D+00 0.469D+00
 Coeff-En:   0.000D+00 0.572D+00 0.428D+00
 Coeff:     -0.493D-02 0.568D+00 0.437D+00
 Gap=     0.129 Goal=   None    Shift=    0.000
 RMSDP=8.58D-05 MaxDP=2.08D-03 DE= 2.14D-05 OVMax= 3.44D-03

 Cycle   4  Pass 0  IDiag  1:
 E= -233.316801336143     Delta-E=       -0.000067289568 Rises=F Damp=F
 DIIS: error= 7.50D-05 at cycle   4 NSaved=   4.
 NSaved= 4 IEnMin= 4 EnMin= -233.316801336143     IErMin= 4 ErrMin= 7.50D-05
 ErrMax= 7.50D-05  0.00D+00 EMaxC= 1.00D-01 BMatC= 8.42D-07 BMatP= 4.21D-05
 IDIUse=1 WtCom= 1.00D+00 WtEn= 0.00D+00
 Coeff-Com: -0.192D-01 0.256D+00 0.204D+00 0.559D+00
 Coeff:     -0.192D-01 0.256D+00 0.204D+00 0.559D+00
 Gap=     0.129 Goal=   None    Shift=    0.000
 RMSDP=1.36D-05 MaxDP=2.50D-04 DE=-6.73D-05 OVMax= 2.58D-04

 Cycle   5  Pass 0  IDiag  1:
 E= -233.316802180778     Delta-E=       -0.000000844636 Rises=F Damp=F
 DIIS: error= 1.95D-05 at cycle   5 NSaved=   5.
 NSaved= 5 IEnMin= 5 EnMin= -233.316802180778     IErMin= 5 ErrMin= 1.95D-05
 ErrMax= 1.95D-05  0.00D+00 EMaxC= 1.00D-01 BMatC= 4.51D-08 BMatP= 8.42D-07
 IDIUse=1 WtCom= 1.00D+00 WtEn= 0.00D+00
 Coeff-Com: -0.552D-02 0.441D-01 0.338D-01 0.226D+00 0.702D+00
 Coeff:     -0.552D-02 0.441D-01 0.338D-01 0.226D+00 0.702D+00
 Gap=     0.129 Goal=   None    Shift=    0.000
 RMSDP=3.03D-06 MaxDP=4.76D-05 DE=-8.45D-07 OVMax= 6.27D-05

 Initial convergence to 1.0D-05 achieved.  Increase integral accuracy.
 Cycle   6  Pass 1  IDiag  1:
 E= -233.316766283602     Delta-E=        0.000035897177 Rises=F Damp=F
 DIIS: error= 8.38D-06 at cycle   1 NSaved=   1.
 NSaved= 1 IEnMin= 1 EnMin= -233.316766283602     IErMin= 1 ErrMin= 8.38D-06
 ErrMax= 8.38D-06  0.00D+00 EMaxC= 1.00D-01 BMatC= 1.58D-08 BMatP= 1.58D-08
 IDIUse=1 WtCom= 1.00D+00 WtEn= 0.00D+00
 Coeff-Com:  0.100D+01
 Coeff:      0.100D+01
 Gap=     0.129 Goal=   None    Shift=    0.000
 RMSDP=3.03D-06 MaxDP=4.76D-05 DE= 3.59D-05 OVMax= 5.26D-05

 Cycle   7  Pass 1  IDiag  1:
 E= -233.316766302139     Delta-E=       -0.000000018537 Rises=F Damp=F
 DIIS: error= 1.02D-05 at cycle   2 NSaved=   2.
 NSaved= 2 IEnMin= 2 EnMin= -233.316766302139     IErMin= 1 ErrMin= 8.38D-06
 ErrMax= 1.02D-05  0.00D+00 EMaxC= 1.00D-01 BMatC= 5.95D-09 BMatP= 1.58D-08
 IDIUse=1 WtCom= 1.00D+00 WtEn= 0.00D+00
 Coeff-Com:  0.320D+00 0.680D+00
 Coeff:      0.320D+00 0.680D+00
 Gap=     0.129 Goal=   None    Shift=    0.000
 RMSDP=1.47D-06 MaxDP=3.03D-05 DE=-1.85D-08 OVMax= 4.46D-05

 Cycle   8  Pass 1  IDiag  1:
 E= -233.316766302084     Delta-E=        0.000000000055 Rises=F Damp=F
 DIIS: error= 1.34D-05 at cycle   3 NSaved=   3.
 NSaved= 3 IEnMin= 2 EnMin= -233.316766302139     IErMin= 1 ErrMin= 8.38D-06
 ErrMax= 1.34D-05  0.00D+00 EMaxC= 1.00D-01 BMatC= 6.46D-09 BMatP= 5.95D-09
 IDIUse=1 WtCom= 1.00D+00 WtEn= 0.00D+00
 Coeff-Com:  0.109D-01 0.508D+00 0.481D+00
 Coeff:      0.109D-01 0.508D+00 0.481D+00
 Gap=     0.129 Goal=   None    Shift=    0.000
 RMSDP=7.51D-07 MaxDP=1.65D-05 DE= 5.50D-11 OVMax= 2.97D-05

 Cycle   9  Pass 1  IDiag  1:
 E= -233.316766307425     Delta-E=       -0.000000005341 Rises=F Damp=F
 DIIS: error= 2.67D-06 at cycle   4 NSaved=   4.
 NSaved= 4 IEnMin= 4 EnMin= -233.316766307425     IErMin= 4 ErrMin= 2.67D-06
 ErrMax= 2.67D-06  0.00D+00 EMaxC= 1.00D-01 BMatC= 2.96D-10 BMatP= 5.95D-09
 IDIUse=1 WtCom= 1.00D+00 WtEn= 0.00D+00
 Coeff-Com: -0.161D-01 0.245D+00 0.278D+00 0.493D+00
 Coeff:     -0.161D-01 0.245D+00 0.278D+00 0.493D+00
 Gap=     0.129 Goal=   None    Shift=    0.000
 RMSDP=1.74D-07 MaxDP=2.84D-06 DE=-5.34D-09 OVMax= 5.45D-06

 Cycle  10  Pass 1  IDiag  1:
 E= -233.316766307705     Delta-E=       -0.000000000280 Rises=F Damp=F
 DIIS: error= 3.04D-07 at cycle   5 NSaved=   5.
 NSaved= 5 IEnMin= 5 EnMin= -233.316766307705     IErMin= 5 ErrMin= 3.04D-07
 ErrMax= 3.04D-07  0.00D+00 EMaxC= 1.00D-01 BMatC= 1.03D-11 BMatP= 2.96D-10
 IDIUse=1 WtCom= 1.00D+00 WtEn= 0.00D+00
 Coeff-Com: -0.725D-02 0.819D-01 0.969D-01 0.227D+00 0.602D+00
 Coeff:     -0.725D-02 0.819D-01 0.969D-01 0.227D+00 0.602D+00
 Gap=     0.129 Goal=   None    Shift=    0.000
 RMSDP=4.01D-08 MaxDP=7.34D-07 DE=-2.80D-10 OVMax= 9.69D-07

 Cycle  11  Pass 1  IDiag  1:
 E= -233.316766307712     Delta-E=       -0.000000000007 Rises=F Damp=F
 DIIS: error= 1.32D-07 at cycle   6 NSaved=   6.
 NSaved= 6 IEnMin= 6 EnMin= -233.316766307712     IErMin= 6 ErrMin= 1.32D-07
 ErrMax= 1.32D-07  0.00D+00 EMaxC= 1.00D-01 BMatC= 1.49D-12 BMatP= 1.03D-11
 IDIUse=1 WtCom= 1.00D+00 WtEn= 0.00D+00
 Coeff-Com: -0.229D-02 0.159D-01 0.198D-01 0.656D-01 0.307D+00 0.594D+00
 Coeff:     -0.229D-02 0.159D-01 0.198D-01 0.656D-01 0.307D+00 0.594D+00
 Gap=     0.129 Goal=   None    Shift=    0.000
 RMSDP=2.08D-08 MaxDP=3.48D-07 DE=-7.05D-12 OVMax= 7.16D-07

 Cycle  12  Pass 1  IDiag  1:
 E= -233.316766307714     Delta-E=       -0.000000000001 Rises=F Damp=F
 DIIS: error= 1.00D-07 at cycle   7 NSaved=   7.
 NSaved= 7 IEnMin= 7 EnMin= -233.316766307714     IErMin= 7 ErrMin= 1.00D-07
 ErrMax= 1.00D-07  0.00D+00 EMaxC= 1.00D-01 BMatC= 5.20D-13 BMatP= 1.49D-12
 IDIUse=1 WtCom= 1.00D+00 WtEn= 0.00D+00
 Coeff-Com: -0.911D-04-0.458D-02-0.494D-02 0.994D-03 0.910D-01 0.405D+00
 Coeff-Com:  0.513D+00
 Coeff:     -0.911D-04-0.458D-02-0.494D-02 0.994D-03 0.910D-01 0.405D+00
 Coeff:      0.513D+00
 Gap=     0.129 Goal=   None    Shift=    0.000
 RMSDP=9.35D-09 MaxDP=2.32D-07 DE=-1.42D-12 OVMax= 3.46D-07

 SCF Done:  E(RB3LYP) =  -233.316766308     A.U. after   12 cycles
            NFock= 12  Conv=0.93D-08     -V/T= 2.0086
 KE= 2.313207794858D+02 PE=-8.817723507304D+02 EE= 2.473688019519D+02
 Leave Link  502 at Thu Mar 19 17:38:04 2026, MaxMem=   536870912 cpu:         8.0
 (Enter C:\G09W\l701.exe)
 Compute integral first derivatives.
 ... and contract with generalized density number  0.
 Leave Link  701 at Thu Mar 19 17:38:04 2026, MaxMem=   536870912 cpu:         0.0
 (Enter C:\G09W\l702.exe)
 L702 exits ... SP integral derivatives will be done elsewhere.
 Leave Link  702 at Thu Mar 19 17:38:04 2026, MaxMem=   536870912 cpu:         0.0
 (Enter C:\G09W\l703.exe)
 Compute integral first derivatives, UseDBF=F ICtDFT=           0.
 Integral derivatives from FoFJK, PRISM(SPDF).
 Calling FoFJK, ICntrl=      2127 FMM=F ISym2X=0 I1Cent= 0 IOpClX= 0 NMat=1 NMatS=1 NMatT=0.
 FoFJK:  IHMeth= 1 ICntrl=    2127 DoSepK=F KAlg= 0 I1Cent=   0 FoldK=F
 IRaf=         0 NMat=   1 IRICut=       1 DoRegI=T DoRafI=F ISym2E= 0.
 FoFCou: FMM=F IPFlag=           0 FMFlag=      100000 FMFlg1=         800
         NFxFlg=           0 DoJE=F BraDBF=F KetDBF=F FulRan=T
         wScrn=  0.000000 ICntrl=    2127 IOpCl=  0 I1Cent=           0 NGrid=           0
         NMat0=    1 NMatS0=      1 NMatT0=    0 NMatD0=    1 NMtDS0=    0 NMtDT0=    0
 Symmetry not used in FoFCou.
 Leave Link  703 at Thu Mar 19 17:38:06 2026, MaxMem=   536870912 cpu:         2.0
 (Enter C:\G09W\l716.exe)
 Dipole        = 4.62694871D-01-3.54360205D-01-1.35580971D-01
 ***** Axes restored to original set *****
 -------------------------------------------------------------------
 Center     Atomic                   Forces (Hartrees/Bohr)
 Number     Number              X              Y              Z
 -------------------------------------------------------------------
      1        6          -0.023478348    0.001324258    0.016538590
      2        6           0.005715877   -0.018645149    0.011816707
      3        8           0.014425619    0.005511787    0.000370077
      4        6           0.044339139   -0.044531631   -0.022237257
      5        6           0.021498679    0.005805696   -0.029969398
      6        1           0.002672016   -0.003976004   -0.010489220
      7        1           0.007052795   -0.002128975   -0.007325968
      8        1          -0.011584713   -0.011955559   -0.012872277
      9        1          -0.010999653    0.035127064    0.032014349
     10        1          -0.015088501    0.020889974    0.027084849
     11        1          -0.002087935    0.000295887   -0.003049409
     12        1           0.016643556   -0.016839030   -0.037476958
     13        1          -0.012267815    0.008469334    0.011165094
     14        1          -0.038159698    0.023090668    0.014580150
     15        1           0.001318980   -0.002438318    0.009850671
 -------------------------------------------------------------------
 Cartesian Forces:  Max     0.044531631 RMS     0.019157962
 Leave Link  716 at Thu Mar 19 17:38:06 2026, MaxMem=   536870912 cpu:         0.0
 (Enter C:\G09W\l103.exe)

 GradGradGradGradGradGradGradGradGradGradGradGradGradGradGradGradGradGrad
 Berny optimization.
 Using GEDIIS/GDIIS optimizer.
 Bend failed for angle     3 -     8 -     9
 Tors failed for dihedral     6 -     3 -     8 -     9
 Tors failed for dihedral     7 -     3 -     8 -     9
 Tors failed for dihedral    10 -     3 -     8 -     9
 Tors failed for dihedral    15 -     3 -     8 -     9
 Tors failed for dihedral     3 -     8 -     9 -    12
 FormBX had a problem.
 Error termination via Lnk1e in C:\G09W\l103.exe at Thu Mar 19 17:38:07 2026.
 Job cpu time:       0 days  0 hours  8 minutes 30.0 seconds.
 File lengths (MBytes):  RWF=      8 Int=      0 D2E=      0 Chk=      2 Scr=      1
