15
 energy: -16.232699752613 gnorm: 0.004724278272 xtb: 6.7.1 (edcfbbe)
C            2.20189722929934        1.45191673489717        0.79357794492460
C            0.08835697926192        0.54825543184091       -1.37928641147987
O            0.84415855707850       -0.01556315462269        0.46505289080024
C           -1.28576422024310       -0.99383225041511       -0.11975546938706
C           -0.92736406037541        1.34149734663848        0.67895258866779
H            0.85006512013030        0.55218126224534        1.77887738005883
H            2.25594320026360        0.15844971841595       -0.14443630398187
H            0.32646736160033       -1.23333797661131       -0.38600546689781
H            0.35473145212593       -2.09667039940053       -2.01339877832609
H            0.60891827634825        1.44255250037522       -0.03538700329953
H           -0.01346130490327       -0.92497337215771        2.60639608243003
H           -0.91976170668093       -0.75452530081817       -1.73869993462723
H           -2.24744919764315        0.29405965480635       -2.26828167368341
H           -1.70497373149208        0.52340967738486       -0.54734498255834
H           -0.43176295476875       -0.29341887257994        1.16946013736012
