 Entering Gaussian System, Link 0=C:\G09W\g09.exe
 Input=hexane_rdkit.com
 Output=C:\workspace\delta_chem\data\raw\hexane\hexane_rdkit.out
 Initial command:
 C:\G09W\l1.exe ".\Gau-14896.inp" "C:\workspace\delta_chem\data\raw\hexane\hexane_rdkit.out" /scrdir=".\"
 Entering Link 1 = C:\G09W\l1.exe PID=     19424.
  
 Copyright (c) 1988,1990,1992,1993,1995,1998,2003,2009,2013,
            Gaussian, Inc.  All Rights Reserved.
  
 This is part of the Gaussian(R) 09 program.  It is based on
 the Gaussian(R) 03 system (copyright 2003, Gaussian, Inc.),
 the Gaussian(R) 98 system (copyright 1998, Gaussian, Inc.),
 the Gaussian(R) 94 system (copyright 1995, Gaussian, Inc.),
 the Gaussian 92(TM) system (copyright 1992, Gaussian, Inc.),
 the Gaussian 90(TM) system (copyright 1990, Gaussian, Inc.),
 the Gaussian 88(TM) system (copyright 1988, Gaussian, Inc.),
 the Gaussian 86(TM) system (copyright 1986, Carnegie Mellon
 University), and the Gaussian 82(TM) system (copyright 1983,
 Carnegie Mellon University). Gaussian is a federally registered
 trademark of Gaussian, Inc.
  
 This software contains proprietary and confidential information,
 including trade secrets, belonging to Gaussian, Inc.
  
 This software is provided under written license and may be
 used, copied, transmitted, or stored only in accord with that
 written license.
  
 The following legend is applicable only to US Government
 contracts under FAR:
  
                    RESTRICTED RIGHTS LEGEND
  
 Use, reproduction and disclosure by the US Government is
 subject to restrictions as set forth in subparagraphs (a)
 and (c) of the Commercial Computer Software - Restricted
 Rights clause in FAR 52.227-19.
  
 Gaussian, Inc.
 340 Quinnipiac St., Bldg. 40, Wallingford CT 06492
  
  
 ---------------------------------------------------------------
 Warning -- This program may not be used in any manner that
 competes with the business of Gaussian, Inc. or will provide
 assistance to any competitor of Gaussian, Inc.  The licensee
 of this program is prohibited from giving any competitor of
 Gaussian, Inc. access to this program.  By using this program,
 the user acknowledges that Gaussian, Inc. is engaged in the
 business of creating and licensing software in the field of
 computational chemistry and represents and warrants to the
 licensee that it is not a competitor of Gaussian, Inc. and that
 it will not use this program in any manner prohibited above.
 ---------------------------------------------------------------
  

 Cite this work as:
 Gaussian 09, Revision D.01,
 M. J. Frisch, G. W. Trucks, H. B. Schlegel, G. E. Scuseria, 
 M. A. Robb, J. R. Cheeseman, G. Scalmani, V. Barone, B. Mennucci, 
 G. A. Petersson, H. Nakatsuji, M. Caricato, X. Li, H. P. Hratchian, 
 A. F. Izmaylov, J. Bloino, G. Zheng, J. L. Sonnenberg, M. Hada, 
 M. Ehara, K. Toyota, R. Fukuda, J. Hasegawa, M. Ishida, T. Nakajima, 
 Y. Honda, O. Kitao, H. Nakai, T. Vreven, J. A. Montgomery, Jr., 
 J. E. Peralta, F. Ogliaro, M. Bearpark, J. J. Heyd, E. Brothers, 
 K. N. Kudin, V. N. Staroverov, T. Keith, R. Kobayashi, J. Normand, 
 K. Raghavachari, A. Rendell, J. C. Burant, S. S. Iyengar, J. Tomasi, 
 M. Cossi, N. Rega, J. M. Millam, M. Klene, J. E. Knox, J. B. Cross, 
 V. Bakken, C. Adamo, J. Jaramillo, R. Gomperts, R. E. Stratmann, 
 O. Yazyev, A. J. Austin, R. Cammi, C. Pomelli, J. W. Ochterski, 
 R. L. Martin, K. Morokuma, V. G. Zakrzewski, G. A. Voth, 
 P. Salvador, J. J. Dannenberg, S. Dapprich, A. D. Daniels, 
 O. Farkas, J. B. Foresman, J. V. Ortiz, J. Cioslowski, 
 and D. J. Fox, Gaussian, Inc., Wallingford CT, 2013.
 
 ******************************************
 Gaussian 09:  EM64W-G09RevD.01 13-Apr-2013
                19-Mar-2026 
 ******************************************
 %NProcShared=4
 Will use up to    4 processors via shared memory.
 %Mem=4GB
 %Chk=hexane_rdkit.chk
 ---------------------
 #p opt B3LYP/6-31G(d)
 ---------------------
 1/14=-1,18=20,19=15,26=3,38=1/1,3;
 2/9=110,12=2,17=6,18=5,40=1/2;
 3/5=1,6=6,7=1,11=2,16=1,25=1,30=1,71=1,74=-5/1,2,3;
 4//1;
 5/5=2,38=5/2;
 6/7=2,8=2,9=2,10=2,28=1/1;
 7//1,2,3,16;
 1/14=-1,18=20,19=15,26=3/3(2);
 2/9=110/2;
 99//99;
 2/9=110/2;
 3/5=1,6=6,7=1,11=2,16=1,25=1,30=1,71=1,74=-5/1,2,3;
 4/5=5,16=3,69=1/1;
 5/5=2,38=5/2;
 7//1,2,3,16;
 1/14=-1,18=20,19=15,26=3/3(-5);
 2/9=110/2;
 6/7=2,8=2,9=2,10=2,19=2,28=1/1;
 99/9=1/99;
 Leave Link    1 at Thu Mar 19 18:05:48 2026, MaxMem=   536870912 cpu:         0.0
 (Enter C:\G09W\l101.exe)
 ------
 hexane
 ------
 Symbolic Z-matrix:
 Charge =  0 Multiplicity = 1
 C                     2.73315  -0.11209   0.34072 
 C                     1.67553   0.97797   0.26078 
 C                     0.38641   0.53257  -0.43504 
 C                    -0.38641  -0.53256   0.34759 
 C                    -1.67552  -0.97796  -0.34823 
 C                    -2.73316   0.11209  -0.42817 
 H                     2.41688  -0.93253   0.99118 
 H                     2.95321  -0.52012  -0.6508 
 H                     3.66186   0.29612   0.75241 
 H                     1.44904   1.34231   1.26954 
 H                     2.09359   1.82557  -0.29552 
 H                     0.62099   0.15809  -1.43877 
 H                    -0.24315   1.4198   -0.56641 
 H                     0.24315  -1.41979   0.47896 
 H                    -0.62099  -0.15809   1.35131 
 H                    -2.09358  -1.82557   0.20806 
 H                    -1.44904  -1.34231  -1.35699 
 H                    -2.95321   0.52011   0.56334 
 H                    -3.66186  -0.29613  -0.83986 
 H                    -2.41688   0.93253  -1.07864 
 
 NAtoms=     20 NQM=       20 NQMF=       0 NMMI=      0 NMMIF=      0
                NMic=       0 NMicF=      0.
                    Isotopes and Nuclear Properties:
 (Nuclear quadrupole moments (NQMom) in fm**2, nuclear magnetic moments (NMagM)
  in nuclear magnetons)

  Atom         1           2           3           4           5           6           7           8           9          10
 IAtWgt=          12          12          12          12          12          12           1           1           1           1
 AtmWgt=  12.0000000  12.0000000  12.0000000  12.0000000  12.0000000  12.0000000   1.0078250   1.0078250   1.0078250   1.0078250
 NucSpn=           0           0           0           0           0           0           1           1           1           1
 AtZEff=   0.0000000   0.0000000   0.0000000   0.0000000   0.0000000   0.0000000   0.0000000   0.0000000   0.0000000   0.0000000
 NQMom=    0.0000000   0.0000000   0.0000000   0.0000000   0.0000000   0.0000000   0.0000000   0.0000000   0.0000000   0.0000000
 NMagM=    0.0000000   0.0000000   0.0000000   0.0000000   0.0000000   0.0000000   2.7928460   2.7928460   2.7928460   2.7928460
 AtZNuc=   6.0000000   6.0000000   6.0000000   6.0000000   6.0000000   6.0000000   1.0000000   1.0000000   1.0000000   1.0000000

  Atom        11          12          13          14          15          16          17          18          19          20
 IAtWgt=           1           1           1           1           1           1           1           1           1           1
 AtmWgt=   1.0078250   1.0078250   1.0078250   1.0078250   1.0078250   1.0078250   1.0078250   1.0078250   1.0078250   1.0078250
 NucSpn=           1           1           1           1           1           1           1           1           1           1
 AtZEff=   0.0000000   0.0000000   0.0000000   0.0000000   0.0000000   0.0000000   0.0000000   0.0000000   0.0000000   0.0000000
 NQMom=    0.0000000   0.0000000   0.0000000   0.0000000   0.0000000   0.0000000   0.0000000   0.0000000   0.0000000   0.0000000
 NMagM=    2.7928460   2.7928460   2.7928460   2.7928460   2.7928460   2.7928460   2.7928460   2.7928460   2.7928460   2.7928460
 AtZNuc=   1.0000000   1.0000000   1.0000000   1.0000000   1.0000000   1.0000000   1.0000000   1.0000000   1.0000000   1.0000000
 Leave Link  101 at Thu Mar 19 18:05:49 2026, MaxMem=   536870912 cpu:         1.0
 (Enter C:\G09W\l103.exe)

 GradGradGradGradGradGradGradGradGradGradGradGradGradGradGradGradGradGrad
 Berny optimization.
 Initialization pass.
                           ----------------------------
                           !    Initial Parameters    !
                           ! (Angstroms and Degrees)  !
 --------------------------                            --------------------------
 ! Name  Definition              Value          Derivative Info.                !
 --------------------------------------------------------------------------------
 ! R1    R(1,2)                  1.5209         estimate D2E/DX2                !
 ! R2    R(1,7)                  1.0937         estimate D2E/DX2                !
 ! R3    R(1,8)                  1.0945         estimate D2E/DX2                !
 ! R4    R(1,9)                  1.0948         estimate D2E/DX2                !
 ! R5    R(2,3)                  1.5311         estimate D2E/DX2                !
 ! R6    R(2,10)                 1.0962         estimate D2E/DX2                !
 ! R7    R(2,11)                 1.0967         estimate D2E/DX2                !
 ! R8    R(3,4)                  1.5311         estimate D2E/DX2                !
 ! R9    R(3,12)                 1.0967         estimate D2E/DX2                !
 ! R10   R(3,13)                 1.0958         estimate D2E/DX2                !
 ! R11   R(4,5)                  1.5311         estimate D2E/DX2                !
 ! R12   R(4,14)                 1.0958         estimate D2E/DX2                !
 ! R13   R(4,15)                 1.0967         estimate D2E/DX2                !
 ! R14   R(5,6)                  1.5209         estimate D2E/DX2                !
 ! R15   R(5,16)                 1.0967         estimate D2E/DX2                !
 ! R16   R(5,17)                 1.0962         estimate D2E/DX2                !
 ! R17   R(6,18)                 1.0945         estimate D2E/DX2                !
 ! R18   R(6,19)                 1.0948         estimate D2E/DX2                !
 ! R19   R(6,20)                 1.0937         estimate D2E/DX2                !
 ! A1    A(2,1,7)              111.5795         estimate D2E/DX2                !
 ! A2    A(2,1,8)              111.0618         estimate D2E/DX2                !
 ! A3    A(2,1,9)              110.024          estimate D2E/DX2                !
 ! A4    A(7,1,8)              108.4964         estimate D2E/DX2                !
 ! A5    A(7,1,9)              107.5388         estimate D2E/DX2                !
 ! A6    A(8,1,9)              108.0046         estimate D2E/DX2                !
 ! A7    A(1,2,3)              113.6327         estimate D2E/DX2                !
 ! A8    A(1,2,10)             109.4828         estimate D2E/DX2                !
 ! A9    A(1,2,11)             108.3917         estimate D2E/DX2                !
 ! A10   A(3,2,10)             109.9337         estimate D2E/DX2                !
 ! A11   A(3,2,11)             108.3766         estimate D2E/DX2                !
 ! A12   A(10,2,11)            106.7785         estimate D2E/DX2                !
 ! A13   A(2,3,4)              113.2683         estimate D2E/DX2                !
 ! A14   A(2,3,12)             109.5826         estimate D2E/DX2                !
 ! A15   A(2,3,13)             107.6175         estimate D2E/DX2                !
 ! A16   A(4,3,12)             109.7702         estimate D2E/DX2                !
 ! A17   A(4,3,13)             109.5455         estimate D2E/DX2                !
 ! A18   A(12,3,13)            106.8359         estimate D2E/DX2                !
 ! A19   A(3,4,5)              113.2683         estimate D2E/DX2                !
 ! A20   A(3,4,14)             109.5454         estimate D2E/DX2                !
 ! A21   A(3,4,15)             109.7702         estimate D2E/DX2                !
 ! A22   A(5,4,14)             107.6176         estimate D2E/DX2                !
 ! A23   A(5,4,15)             109.5826         estimate D2E/DX2                !
 ! A24   A(14,4,15)            106.8358         estimate D2E/DX2                !
 ! A25   A(4,5,6)              113.6328         estimate D2E/DX2                !
 ! A26   A(4,5,16)             108.3766         estimate D2E/DX2                !
 ! A27   A(4,5,17)             109.9336         estimate D2E/DX2                !
 ! A28   A(6,5,16)             108.3918         estimate D2E/DX2                !
 ! A29   A(6,5,17)             109.4828         estimate D2E/DX2                !
 ! A30   A(16,5,17)            106.7784         estimate D2E/DX2                !
 ! A31   A(5,6,18)             111.0618         estimate D2E/DX2                !
 ! A32   A(5,6,19)             110.024          estimate D2E/DX2                !
 ! A33   A(5,6,20)             111.5797         estimate D2E/DX2                !
 ! A34   A(18,6,19)            108.0046         estimate D2E/DX2                !
 ! A35   A(18,6,20)            108.4963         estimate D2E/DX2                !
 ! A36   A(19,6,20)            107.5388         estimate D2E/DX2                !
 ! D1    D(7,1,2,3)            -66.5632         estimate D2E/DX2                !
 ! D2    D(7,1,2,10)            56.7729         estimate D2E/DX2                !
 ! D3    D(7,1,2,11)           172.8971         estimate D2E/DX2                !
 ! D4    D(8,1,2,3)             54.6278         estimate D2E/DX2                !
 ! D5    D(8,1,2,10)           177.964          estimate D2E/DX2                !
 ! D6    D(8,1,2,11)           -65.9119         estimate D2E/DX2                !
 ! D7    D(9,1,2,3)            174.158          estimate D2E/DX2                !
 ! D8    D(9,1,2,10)           -62.5059         estimate D2E/DX2                !
 ! D9    D(9,1,2,11)            53.6183         estimate D2E/DX2                !
 ! D10   D(1,2,3,4)             66.7057         estimate D2E/DX2                !
 ! D11   D(1,2,3,12)           -56.235          estimate D2E/DX2                !
 ! D12   D(1,2,3,13)          -172.0526         estimate D2E/DX2                !
 ! D13   D(10,2,3,4)           -56.3837         estimate D2E/DX2                !
 ! D14   D(10,2,3,12)         -179.3244         estimate D2E/DX2                !
 ! D15   D(10,2,3,13)           64.858          estimate D2E/DX2                !
 ! D16   D(11,2,3,4)          -172.7461         estimate D2E/DX2                !
 ! D17   D(11,2,3,12)           64.3132         estimate D2E/DX2                !
 ! D18   D(11,2,3,13)          -51.5044         estimate D2E/DX2                !
 ! D19   D(2,3,4,5)           -179.9998         estimate D2E/DX2                !
 ! D20   D(2,3,4,14)           -59.8499         estimate D2E/DX2                !
 ! D21   D(2,3,4,15)            57.1632         estimate D2E/DX2                !
 ! D22   D(12,3,4,5)           -57.1627         estimate D2E/DX2                !
 ! D23   D(12,3,4,14)           62.9871         estimate D2E/DX2                !
 ! D24   D(12,3,4,15)         -179.9998         estimate D2E/DX2                !
 ! D25   D(13,3,4,5)            59.8504         estimate D2E/DX2                !
 ! D26   D(13,3,4,14)         -179.9997         estimate D2E/DX2                !
 ! D27   D(13,3,4,15)          -62.9867         estimate D2E/DX2                !
 ! D28   D(3,4,5,6)            -66.7059         estimate D2E/DX2                !
 ! D29   D(3,4,5,16)           172.7457         estimate D2E/DX2                !
 ! D30   D(3,4,5,17)            56.3834         estimate D2E/DX2                !
 ! D31   D(14,4,5,6)           172.0525         estimate D2E/DX2                !
 ! D32   D(14,4,5,16)           51.5041         estimate D2E/DX2                !
 ! D33   D(14,4,5,17)          -64.8582         estimate D2E/DX2                !
 ! D34   D(15,4,5,6)            56.2349         estimate D2E/DX2                !
 ! D35   D(15,4,5,16)          -64.3135         estimate D2E/DX2                !
 ! D36   D(15,4,5,17)          179.3242         estimate D2E/DX2                !
 ! D37   D(4,5,6,18)           -54.6278         estimate D2E/DX2                !
 ! D38   D(4,5,6,19)          -174.1578         estimate D2E/DX2                !
 ! D39   D(4,5,6,20)            66.5633         estimate D2E/DX2                !
 ! D40   D(16,5,6,18)           65.912          estimate D2E/DX2                !
 ! D41   D(16,5,6,19)          -53.618          estimate D2E/DX2                !
 ! D42   D(16,5,6,20)         -172.8969         estimate D2E/DX2                !
 ! D43   D(17,5,6,18)         -177.9639         estimate D2E/DX2                !
 ! D44   D(17,5,6,19)           62.5061         estimate D2E/DX2                !
 ! D45   D(17,5,6,20)          -56.7728         estimate D2E/DX2                !
 --------------------------------------------------------------------------------
 Trust Radius=3.00D-01 FncErr=1.00D-07 GrdErr=1.00D-06
 Number of steps in this run=    110 maximum allowed number of steps=    120.
 GradGradGradGradGradGradGradGradGradGradGradGradGradGradGradGradGradGrad

 Leave Link  103 at Thu Mar 19 18:05:49 2026, MaxMem=   536870912 cpu:         0.0
 (Enter C:\G09W\l202.exe)
                          Input orientation:                          
 ---------------------------------------------------------------------
 Center     Atomic      Atomic             Coordinates (Angstroms)
 Number     Number       Type             X           Y           Z
 ---------------------------------------------------------------------
      1          6           0        2.733153   -0.112092    0.340716
      2          6           0        1.675526    0.977965    0.260779
      3          6           0        0.386406    0.532568   -0.435039
      4          6           0       -0.386407   -0.532562    0.347587
      5          6           0       -1.675523   -0.977963   -0.348233
      6          6           0       -2.733155    0.112087   -0.428172
      7          1           0        2.416875   -0.932528    0.991183
      8          1           0        2.953207   -0.520120   -0.650795
      9          1           0        3.661864    0.296121    0.752408
     10          1           0        1.449043    1.342313    1.269538
     11          1           0        2.093586    1.825569   -0.295517
     12          1           0        0.620985    0.158092   -1.438766
     13          1           0       -0.243147    1.419800   -0.566412
     14          1           0        0.243149   -1.419791    0.478963
     15          1           0       -0.620989   -0.158085    1.351313
     16          1           0       -2.093579   -1.825571    0.208060
     17          1           0       -1.449035   -1.342309   -1.356993
     18          1           0       -2.953213    0.520114    0.563339
     19          1           0       -3.661864   -0.296132   -0.839864
     20          1           0       -2.416883    0.932526   -1.078638
 ---------------------------------------------------------------------
                    Distance matrix (angstroms):
                    1          2          3          4          5
     1  C    0.000000
     2  C    1.520917   0.000000
     3  C    2.554330   1.531134   0.000000
     4  C    3.147776   2.557498   1.531093   0.000000
     5  C    4.545416   3.927605   2.557497   1.531133   0.000000
     6  C    5.524669   4.545423   3.147779   2.554330   1.520916
     7  H    1.093734   2.175562   2.881566   2.903890   4.306254
     8  H    1.094534   2.169722   2.782655   3.485677   4.661149
     9  H    1.094821   2.156884   3.492071   4.151999   5.596642
    10  H    2.151033   1.096193   2.165749   2.781012   4.214710
    11  H    2.137374   1.096664   2.146108   3.482058   4.697739
    12  H    2.775033   2.161643   1.096689   2.164001   2.784570
    13  H    3.468131   2.135596   1.095799   2.160471   2.801530
    14  H    2.815903   2.801525   2.160469   1.095799   2.135595
    15  H    3.503383   2.784575   2.164001   1.096689   2.161643
    16  H    5.123568   4.697738   3.482057   2.146107   1.096664
    17  H    4.678285   4.214705   2.781008   2.165747   1.096194
    18  H    5.725732   4.661158   3.485681   2.782655   2.169721
    19  H    6.505681   5.596648   4.152002   3.492071   2.156883
    20  H    5.443222   4.306265   2.903897   2.881568   2.175563
                    6          7          8          9         10
     6  C    0.000000
     7  H    5.443216   0.000000
     8  H    5.725728   1.775901   0.000000
     9  H    6.505683   1.765386   1.771277   0.000000
    10  H    4.678296   2.487787   3.069014   2.501703   0.000000
    11  H    5.123578   3.060590   2.523376   2.428344   1.760219
    12  H    3.503380   3.212371   2.553454   3.750632   3.069686
    13  H    2.815913   3.877534   3.739932   4.272125   2.498044
    14  H    3.468131   2.285799   3.070859   3.834937   3.115832
    15  H    2.775032   3.155641   4.112710   4.348312   2.557912
    16  H    2.137374   4.664226   5.283170   6.158167   4.869537
    17  H    2.151032   4.541708   4.533701   5.766742   4.743914
    18  H    1.094534   5.579522   6.118987   6.621568   4.533717
    19  H    1.094821   6.380345   6.621562   7.518184   5.766754
    20  H    1.093734   5.579229   5.579525   6.380353   4.541722
                   11         12         13         14         15
    11  H    0.000000
    12  H    2.501210   0.000000
    13  H    2.387122   1.760577   0.000000
    14  H    3.815272   2.512003   3.064730   0.000000
    15  H    3.743775   3.070343   2.512002   1.760577   0.000000
    16  H    5.578240   3.743770   3.815277   2.387120   2.501211
    17  H    4.869532   2.557904   3.115835   2.498044   3.069685
    18  H    5.283183   4.112709   3.070868   3.739931   2.553454
    19  H    6.158176   4.348310   3.834948   4.272124   3.750631
    20  H    4.664240   3.155643   2.285813   3.877536   3.212371
                   16         17         18         19         20
    16  H    0.000000
    17  H    1.760219   0.000000
    18  H    2.523377   3.069014   0.000000
    19  H    2.428342   2.501704   1.771277   0.000000
    20  H    3.060591   2.487787   1.775900   1.765387   0.000000
 Stoichiometry    C6H14
 Framework group  C1[X(C6H14)]
 Deg. of freedom    54
 Full point group                 C1      NOp   1
 Largest Abelian subgroup         C1      NOp   1
 Largest concise Abelian subgroup C1      NOp   1
                         Standard orientation:                         
 ---------------------------------------------------------------------
 Center     Atomic      Atomic             Coordinates (Angstroms)
 Number     Number       Type             X           Y           Z
 ---------------------------------------------------------------------
      1          6           0        2.717523   -0.488551   -0.082907
      2          6           0        1.821055    0.705851    0.205083
      3          6           0        0.400328    0.553769   -0.345168
      4          6           0       -0.400328   -0.553764    0.345171
      5          6           0       -1.821052   -0.705850   -0.205083
      6          6           0       -2.717526    0.488546    0.082905
      7          1           0        2.380932   -1.382052    0.450588
      8          1           0        2.742478   -0.712439   -1.154008
      9          1           0        3.741099   -0.276083    0.242335
     10          1           0        1.786041    0.884483    1.286057
     11          1           0        2.274010    1.595747   -0.248335
     12          1           0        0.442553    0.363375   -1.424378
     13          1           0       -0.111419    1.513537   -0.211995
     14          1           0        0.111423   -1.513530    0.212001
     15          1           0       -0.442556   -0.363369    1.424381
     16          1           0       -2.274004   -1.595750    0.248331
     17          1           0       -1.786033   -0.884480   -1.286058
     18          1           0       -2.742485    0.712433    1.154006
     19          1           0       -3.741100    0.276072   -0.242339
     20          1           0       -2.380940    1.382050   -0.450588
 ---------------------------------------------------------------------
 Rotational constants (GHZ):      8.9394737      1.4537266      1.3498011
 Leave Link  202 at Thu Mar 19 18:05:49 2026, MaxMem=   536870912 cpu:         0.0
 (Enter C:\G09W\l301.exe)
 Standard basis: 6-31G(d) (6D, 7F)
 Ernie: Thresh=  0.10000D-02 Tol=  0.10000D-05 Strict=F.
 There are   118 symmetry adapted cartesian basis functions of A   symmetry.
 There are   118 symmetry adapted basis functions of A   symmetry.
   118 basis functions,   224 primitive gaussians,   118 cartesian basis functions
    25 alpha electrons       25 beta electrons
       nuclear repulsion energy       250.5969144519 Hartrees.
 IExCor=  402 DFT=T Ex+Corr=B3LYP ExCW=0 ScaHFX=  0.200000
 ScaDFX=  0.800000  0.720000  1.000000  0.810000 ScalE2=  1.000000  1.000000
 IRadAn=      0 IRanWt=     -1 IRanGd=            0 ICorTp=0 IEmpDi=  4
 NAtoms=   20 NActive=   20 NUniq=   20 SFac= 1.00D+00 NAtFMM=   60 NAOKFM=F Big=F
 Integral buffers will be    131072 words long.
 Raffenetti 2 integral format.
 Two-electron integral symmetry is turned on.
 Leave Link  301 at Thu Mar 19 18:05:49 2026, MaxMem=   536870912 cpu:         0.0
 (Enter C:\G09W\l302.exe)
 NPDir=0 NMtPBC=     1 NCelOv=     1 NCel=       1 NClECP=     1 NCelD=      1
         NCelK=      1 NCelE2=     1 NClLst=     1 CellRange=     0.0.
 One-electron integrals computed using PRISM.
 NBasis=   118 RedAO= T EigKep=  4.05D-03  NBF=   118
 NBsUse=   118 1.00D-06 EigRej= -1.00D+00 NBFU=   118
 Precomputing XC quadrature grid using
 IXCGrd= 4 IRadAn=           0 IRanWt=          -1 IRanGd=           0 AccXCQ= 0.00D+00.
 Generated NRdTot=       0 NPtTot=           0 NUsed=           0 NTot=          32
 NSgBfM=   118   118   118   118   118 MxSgAt=    20 MxSgA2=    20.
 Leave Link  302 at Thu Mar 19 18:05:49 2026, MaxMem=   536870912 cpu:         0.0
 (Enter C:\G09W\l303.exe)
 DipDrv:  MaxL=1.
 Leave Link  303 at Thu Mar 19 18:05:50 2026, MaxMem=   536870912 cpu:         0.0
 (Enter C:\G09W\l401.exe)
 ExpMin= 1.61D-01 ExpMax= 3.05D+03 ExpMxC= 4.57D+02 IAcc=1 IRadAn=         1 AccDes= 0.00D+00
 Harris functional with IExCor=  402 and IRadAn=       1 diagonalized for initial guess.
 HarFok:  IExCor=  402 AccDes= 0.00D+00 IRadAn=         1 IDoV= 1 UseB2=F ITyADJ=14
 ICtDFT=  3500011 ScaDFX=  1.000000  1.000000  1.000000  1.000000
 FoFCou: FMM=F IPFlag=           0 FMFlag=      100000 FMFlg1=           0
         NFxFlg=           0 DoJE=T BraDBF=F KetDBF=T FulRan=T
         wScrn=  0.000000 ICntrl=     500 IOpCl=  0 I1Cent=   200000004 NGrid=           0
         NMat0=    1 NMatS0=      1 NMatT0=    0 NMatD0=    1 NMtDS0=    0 NMtDT0=    0
 Petite list used in FoFCou.
 Harris En= -237.172453221760    
 JPrj=0 DoOrth=F DoCkMO=F.
 Leave Link  401 at Thu Mar 19 18:05:51 2026, MaxMem=   536870912 cpu:         1.0
 (Enter C:\G09W\l502.exe)
 Closed shell SCF:
 Using DIIS extrapolation, IDIIS=  1040.
 Integral symmetry usage will be decided dynamically.
 Keep R1 ints in memory in canonical form, NReq=25653273.
 IVT=       61948 IEndB=       61948 NGot=   536870912 MDV=   512158234
 LenX=   512158234 LenY=   512143869
 Requested convergence on RMS density matrix=1.00D-08 within 128 cycles.
 Requested convergence on MAX density matrix=1.00D-06.
 Requested convergence on             energy=1.00D-06.
 No special actions if energy rises.
 FoFCou: FMM=F IPFlag=           0 FMFlag=           0 FMFlg1=           0
         NFxFlg=           0 DoJE=F BraDBF=F KetDBF=F FulRan=T
         wScrn=  0.000000 ICntrl=     600 IOpCl=  0 I1Cent=           0 NGrid=           0
         NMat0=    1 NMatS0=   7021 NMatT0=    0 NMatD0=    1 NMtDS0=    0 NMtDT0=    0
 Symmetry not used in FoFCou.
 Integral accuracy reduced to 1.0D-05 until final iterations.

 Cycle   1  Pass 0  IDiag  1:
 E= -236.793878719067    
 DIIS: error= 4.73D-02 at cycle   1 NSaved=   1.
 NSaved= 1 IEnMin= 1 EnMin= -236.793878719067     IErMin= 1 ErrMin= 4.73D-02
 ErrMax= 4.73D-02  0.00D+00 EMaxC= 1.00D-01 BMatC= 2.55D-01 BMatP= 2.55D-01
 IDIUse=3 WtCom= 5.27D-01 WtEn= 4.73D-01
 Coeff-Com:  0.100D+01
 Coeff-En:   0.100D+01
 Coeff:      0.100D+01
 Gap=     0.327 Goal=   None    Shift=    0.000
 GapD=    0.327 DampG=1.000 DampE=0.500 DampFc=0.5000 IDamp=-1.
 Damping current iteration by 5.00D-01
 RMSDP=1.01D-02 MaxDP=1.45D-01              OVMax= 1.89D-01

 Cycle   2  Pass 0  IDiag  1:
 E= -236.920119260667     Delta-E=       -0.126240541600 Rises=F Damp=T
 DIIS: error= 7.82D-03 at cycle   2 NSaved=   2.
 NSaved= 2 IEnMin= 2 EnMin= -236.920119260667     IErMin= 2 ErrMin= 7.82D-03
 ErrMax= 7.82D-03  0.00D+00 EMaxC= 1.00D-01 BMatC= 1.08D-02 BMatP= 2.55D-01
 IDIUse=3 WtCom= 9.22D-01 WtEn= 7.82D-02
 Coeff-Com:  0.847D-01 0.915D+00
 Coeff-En:   0.138D+00 0.862D+00
 Coeff:      0.889D-01 0.911D+00
 Gap=     0.401 Goal=   None    Shift=    0.000
 RMSDP=1.51D-03 MaxDP=2.37D-02 DE=-1.26D-01 OVMax= 1.02D-01

 Cycle   3  Pass 0  IDiag  1:
 E= -237.080820209684     Delta-E=       -0.160700949017 Rises=F Damp=F
 DIIS: error= 2.65D-03 at cycle   3 NSaved=   3.
 NSaved= 3 IEnMin= 3 EnMin= -237.080820209684     IErMin= 3 ErrMin= 2.65D-03
 ErrMax= 2.65D-03  0.00D+00 EMaxC= 1.00D-01 BMatC= 8.25D-04 BMatP= 1.08D-02
 IDIUse=3 WtCom= 9.74D-01 WtEn= 2.65D-02
 Coeff-Com:  0.977D-03 0.165D+00 0.834D+00
 Coeff-En:   0.000D+00 0.000D+00 0.100D+01
 Coeff:      0.952D-03 0.161D+00 0.838D+00
 Gap=     0.390 Goal=   None    Shift=    0.000
 RMSDP=3.97D-04 MaxDP=5.64D-03 DE=-1.61D-01 OVMax= 7.76D-03

 Cycle   4  Pass 0  IDiag  1:
 E= -237.081445884577     Delta-E=       -0.000625674893 Rises=F Damp=F
 DIIS: error= 9.82D-04 at cycle   4 NSaved=   4.
 NSaved= 4 IEnMin= 4 EnMin= -237.081445884577     IErMin= 4 ErrMin= 9.82D-04
 ErrMax= 9.82D-04  0.00D+00 EMaxC= 1.00D-01 BMatC= 1.88D-04 BMatP= 8.25D-04
 IDIUse=3 WtCom= 9.90D-01 WtEn= 9.82D-03
 Coeff-Com: -0.158D-02 0.251D-01 0.332D+00 0.644D+00
 Coeff-En:   0.000D+00 0.000D+00 0.757D-01 0.924D+00
 Coeff:     -0.157D-02 0.248D-01 0.330D+00 0.647D+00
 Gap=     0.391 Goal=   None    Shift=    0.000
 RMSDP=1.54D-04 MaxDP=1.98D-03 DE=-6.26D-04 OVMax= 3.21D-03

 Cycle   5  Pass 0  IDiag  1:
 E= -237.081611934032     Delta-E=       -0.000166049454 Rises=F Damp=F
 DIIS: error= 3.43D-04 at cycle   5 NSaved=   5.
 NSaved= 5 IEnMin= 5 EnMin= -237.081611934032     IErMin= 5 ErrMin= 3.43D-04
 ErrMax= 3.43D-04  0.00D+00 EMaxC= 1.00D-01 BMatC= 2.44D-05 BMatP= 1.88D-04
 IDIUse=3 WtCom= 9.97D-01 WtEn= 3.43D-03
 Coeff-Com: -0.527D-03-0.387D-04 0.104D+00 0.327D+00 0.570D+00
 Coeff-En:   0.000D+00 0.000D+00 0.000D+00 0.200D-01 0.980D+00
 Coeff:     -0.526D-03-0.385D-04 0.103D+00 0.326D+00 0.571D+00
 Gap=     0.390 Goal=   None    Shift=    0.000
 RMSDP=3.89D-05 MaxDP=6.64D-04 DE=-1.66D-04 OVMax= 8.54D-04

 Cycle   6  Pass 0  IDiag  1:
 E= -237.081636027117     Delta-E=       -0.000024093085 Rises=F Damp=F
 DIIS: error= 1.95D-05 at cycle   6 NSaved=   6.
 NSaved= 6 IEnMin= 6 EnMin= -237.081636027117     IErMin= 6 ErrMin= 1.95D-05
 ErrMax= 1.95D-05  0.00D+00 EMaxC= 1.00D-01 BMatC= 9.08D-08 BMatP= 2.44D-05
 IDIUse=1 WtCom= 1.00D+00 WtEn= 0.00D+00
 Coeff-Com: -0.802D-05-0.603D-03 0.193D-01 0.684D-01 0.143D+00 0.770D+00
 Coeff:     -0.802D-05-0.603D-03 0.193D-01 0.684D-01 0.143D+00 0.770D+00
 Gap=     0.391 Goal=   None    Shift=    0.000
 RMSDP=3.21D-06 MaxDP=4.68D-05 DE=-2.41D-05 OVMax= 7.07D-05

 Initial convergence to 1.0D-05 achieved.  Increase integral accuracy.
 Cycle   7  Pass 1  IDiag  1:
 E= -237.081712599668     Delta-E=       -0.000076572551 Rises=F Damp=F
 DIIS: error= 2.23D-05 at cycle   1 NSaved=   1.
 NSaved= 1 IEnMin= 1 EnMin= -237.081712599668     IErMin= 1 ErrMin= 2.23D-05
 ErrMax= 2.23D-05  0.00D+00 EMaxC= 1.00D-01 BMatC= 5.37D-08 BMatP= 5.37D-08
 IDIUse=1 WtCom= 1.00D+00 WtEn= 0.00D+00
 Coeff-Com:  0.100D+01
 Coeff:      0.100D+01
 Gap=     0.391 Goal=   None    Shift=    0.000
 RMSDP=3.21D-06 MaxDP=4.68D-05 DE=-7.66D-05 OVMax= 7.73D-05

 Cycle   8  Pass 1  IDiag  1:
 E= -237.081712664913     Delta-E=       -0.000000065245 Rises=F Damp=F
 DIIS: error= 9.19D-06 at cycle   2 NSaved=   2.
 NSaved= 2 IEnMin= 2 EnMin= -237.081712664913     IErMin= 2 ErrMin= 9.19D-06
 ErrMax= 9.19D-06  0.00D+00 EMaxC= 1.00D-01 BMatC= 1.32D-08 BMatP= 5.37D-08
 IDIUse=1 WtCom= 1.00D+00 WtEn= 0.00D+00
 Coeff-Com:  0.252D+00 0.748D+00
 Coeff:      0.252D+00 0.748D+00
 Gap=     0.391 Goal=   None    Shift=    0.000
 RMSDP=1.25D-06 MaxDP=3.07D-05 DE=-6.52D-08 OVMax= 2.87D-05

 Cycle   9  Pass 1  IDiag  1:
 E= -237.081712672444     Delta-E=       -0.000000007531 Rises=F Damp=F
 DIIS: error= 5.66D-06 at cycle   3 NSaved=   3.
 NSaved= 3 IEnMin= 3 EnMin= -237.081712672444     IErMin= 3 ErrMin= 5.66D-06
 ErrMax= 5.66D-06  0.00D+00 EMaxC= 1.00D-01 BMatC= 5.14D-09 BMatP= 1.32D-08
 IDIUse=1 WtCom= 1.00D+00 WtEn= 0.00D+00
 Coeff-Com: -0.276D-01 0.382D+00 0.646D+00
 Coeff:     -0.276D-01 0.382D+00 0.646D+00
 Gap=     0.391 Goal=   None    Shift=    0.000
 RMSDP=5.32D-07 MaxDP=1.23D-05 DE=-7.53D-09 OVMax= 1.29D-05

 Cycle  10  Pass 1  IDiag  1:
 E= -237.081712677323     Delta-E=       -0.000000004879 Rises=F Damp=F
 DIIS: error= 2.97D-07 at cycle   4 NSaved=   4.
 NSaved= 4 IEnMin= 4 EnMin= -237.081712677323     IErMin= 4 ErrMin= 2.97D-07
 ErrMax= 2.97D-07  0.00D+00 EMaxC= 1.00D-01 BMatC= 1.40D-11 BMatP= 5.14D-09
 IDIUse=1 WtCom= 1.00D+00 WtEn= 0.00D+00
 Coeff-Com: -0.960D-02 0.101D+00 0.185D+00 0.723D+00
 Coeff:     -0.960D-02 0.101D+00 0.185D+00 0.723D+00
 Gap=     0.391 Goal=   None    Shift=    0.000
 RMSDP=5.11D-08 MaxDP=5.03D-07 DE=-4.88D-09 OVMax= 1.09D-06

 Cycle  11  Pass 1  IDiag  1:
 E= -237.081712677349     Delta-E=       -0.000000000026 Rises=F Damp=F
 DIIS: error= 7.54D-08 at cycle   5 NSaved=   5.
 NSaved= 5 IEnMin= 5 EnMin= -237.081712677349     IErMin= 5 ErrMin= 7.54D-08
 ErrMax= 7.54D-08  0.00D+00 EMaxC= 1.00D-01 BMatC= 1.16D-12 BMatP= 1.40D-11
 IDIUse=1 WtCom= 1.00D+00 WtEn= 0.00D+00
 Coeff-Com: -0.180D-02 0.149D-01 0.309D-01 0.245D+00 0.711D+00
 Coeff:     -0.180D-02 0.149D-01 0.309D-01 0.245D+00 0.711D+00
 Gap=     0.391 Goal=   None    Shift=    0.000
 RMSDP=1.32D-08 MaxDP=1.84D-07 DE=-2.55D-11 OVMax= 2.80D-07

 Cycle  12  Pass 1  IDiag  1:
 E= -237.081712677343     Delta-E=        0.000000000006 Rises=F Damp=F
 DIIS: error= 3.91D-08 at cycle   6 NSaved=   6.
 NSaved= 6 IEnMin= 5 EnMin= -237.081712677349     IErMin= 6 ErrMin= 3.91D-08
 ErrMax= 3.91D-08  0.00D+00 EMaxC= 1.00D-01 BMatC= 2.59D-13 BMatP= 1.16D-12
 IDIUse=1 WtCom= 1.00D+00 WtEn= 0.00D+00
 Coeff-Com:  0.680D-04-0.331D-02-0.387D-02 0.501D-01 0.363D+00 0.594D+00
 Coeff:      0.680D-04-0.331D-02-0.387D-02 0.501D-01 0.363D+00 0.594D+00
 Gap=     0.391 Goal=   None    Shift=    0.000
 RMSDP=4.32D-09 MaxDP=7.42D-08 DE= 5.57D-12 OVMax= 9.71D-08

 SCF Done:  E(RB3LYP) =  -237.081712677     A.U. after   12 cycles
            NFock= 12  Conv=0.43D-08     -V/T= 2.0099
 KE= 2.347535518684D+02 PE=-1.048234112531D+03 EE= 3.258019335338D+02
 Leave Link  502 at Thu Mar 19 18:06:04 2026, MaxMem=   536870912 cpu:        13.0
 (Enter C:\G09W\l601.exe)
 Copying SCF densities to generalized density rwf, IOpCl= 0 IROHF=0.

 **********************************************************************

            Population analysis using the SCF density.

 **********************************************************************

 Orbital symmetries:
       Occupied  (A) (A) (A) (A) (A) (A) (A) (A) (A) (A) (A) (A)
                 (A) (A) (A) (A) (A) (A) (A) (A) (A) (A) (A) (A)
                 (A)
       Virtual   (A) (A) (A) (A) (A) (A) (A) (A) (A) (A) (A) (A)
                 (A) (A) (A) (A) (A) (A) (A) (A) (A) (A) (A) (A)
                 (A) (A) (A) (A) (A) (A) (A) (A) (A) (A) (A) (A)
                 (A) (A) (A) (A) (A) (A) (A) (A) (A) (A) (A) (A)
                 (A) (A) (A) (A) (A) (A) (A) (A) (A) (A) (A) (A)
                 (A) (A) (A) (A) (A) (A) (A) (A) (A) (A) (A) (A)
                 (A) (A) (A) (A) (A) (A) (A) (A) (A) (A) (A) (A)
                 (A) (A) (A) (A) (A) (A) (A) (A) (A)
 The electronic state is 1-A.
 Alpha  occ. eigenvalues --  -10.17321 -10.17320 -10.17119 -10.17098 -10.16705
 Alpha  occ. eigenvalues --  -10.16705  -0.80244  -0.76202  -0.69856  -0.64529
 Alpha  occ. eigenvalues --   -0.58398  -0.55478  -0.46079  -0.44792  -0.44414
 Alpha  occ. eigenvalues --   -0.40858  -0.40430  -0.38653  -0.36172  -0.34837
 Alpha  occ. eigenvalues --   -0.33980  -0.33067  -0.31955  -0.30785  -0.29992
 Alpha virt. eigenvalues --    0.09059   0.11075   0.12038   0.12710   0.15534
 Alpha virt. eigenvalues --    0.16112   0.16472   0.17120   0.18171   0.18630
 Alpha virt. eigenvalues --    0.18774   0.19590   0.22038   0.22913   0.24284
 Alpha virt. eigenvalues --    0.26049   0.26242   0.28120   0.29310   0.50186
 Alpha virt. eigenvalues --    0.51291   0.53030   0.53909   0.54552   0.54583
 Alpha virt. eigenvalues --    0.57777   0.62287   0.66561   0.66662   0.68106
 Alpha virt. eigenvalues --    0.70500   0.70879   0.73259   0.79919   0.83330
 Alpha virt. eigenvalues --    0.84369   0.87126   0.88379   0.89278   0.89521
 Alpha virt. eigenvalues --    0.90604   0.91557   0.92848   0.94923   0.96157
 Alpha virt. eigenvalues --    0.97669   0.97911   1.00580   1.01708   1.02088
 Alpha virt. eigenvalues --    1.04324   1.12975   1.21017   1.36659   1.42338
 Alpha virt. eigenvalues --    1.43509   1.54315   1.59345   1.61361   1.65382
 Alpha virt. eigenvalues --    1.73072   1.74206   1.81606   1.82315   1.92386
 Alpha virt. eigenvalues --    1.93786   1.97843   1.98661   1.99430   2.01889
 Alpha virt. eigenvalues --    2.02803   2.12683   2.18024   2.20281   2.28255
 Alpha virt. eigenvalues --    2.29216   2.32149   2.34769   2.37123   2.41026
 Alpha virt. eigenvalues --    2.43260   2.43651   2.58741   2.62957   2.64854
 Alpha virt. eigenvalues --    2.71218   2.80461   4.12140   4.19821   4.29672
 Alpha virt. eigenvalues --    4.41147   4.46037   4.55400
          Condensed to atoms (all electrons):
               1          2          3          4          5          6
     1  C    5.067353   0.379768  -0.048425  -0.005256   0.000083  -0.000001
     2  C    0.379768   4.958654   0.382752  -0.042044   0.004223   0.000083
     3  C   -0.048425   0.382752   4.988491   0.390530  -0.042044  -0.005256
     4  C   -0.005256  -0.042044   0.390530   4.988491   0.382752  -0.048425
     5  C    0.000083   0.004223  -0.042044   0.382752   4.958654   0.379768
     6  C   -0.000001   0.000083  -0.005256  -0.048425   0.379768   5.067352
     7  H    0.379044  -0.035344  -0.004952   0.002696  -0.000119   0.000000
     8  H    0.377960  -0.037191  -0.004868  -0.000651  -0.000027   0.000000
     9  H    0.373012  -0.030473   0.004782   0.000150   0.000000   0.000000
    10  H   -0.041196   0.376578  -0.038663  -0.007223   0.000077  -0.000017
    11  H   -0.041661   0.374630  -0.035515   0.004975  -0.000163   0.000000
    12  H   -0.007152  -0.038664   0.371929  -0.042240  -0.003099  -0.000615
    13  H    0.005418  -0.036053   0.373264  -0.040359  -0.005451   0.003345
    14  H    0.003345  -0.005451  -0.040359   0.373264  -0.036053   0.005418
    15  H   -0.000615  -0.003099  -0.042240   0.371929  -0.038664  -0.007152
    16  H    0.000000  -0.000163   0.004976  -0.035515   0.374630  -0.041661
    17  H   -0.000017   0.000077  -0.007223  -0.038663   0.376578  -0.041197
    18  H    0.000000  -0.000027  -0.000651  -0.004868  -0.037191   0.377960
    19  H    0.000000   0.000000   0.000150   0.004782  -0.030473   0.373012
    20  H    0.000000  -0.000119   0.002696  -0.004952  -0.035343   0.379044
               7          8          9         10         11         12
     1  C    0.379044   0.377960   0.373012  -0.041196  -0.041661  -0.007152
     2  C   -0.035344  -0.037191  -0.030473   0.376578   0.374630  -0.038664
     3  C   -0.004952  -0.004868   0.004782  -0.038663  -0.035515   0.371929
     4  C    0.002696  -0.000651   0.000150  -0.007223   0.004975  -0.042240
     5  C   -0.000119  -0.000027   0.000000   0.000077  -0.000163  -0.003099
     6  C    0.000000   0.000000   0.000000  -0.000017   0.000000  -0.000615
     7  H    0.572631  -0.032174  -0.031039  -0.005212   0.005545  -0.000113
     8  H   -0.032174   0.579750  -0.030848   0.005574  -0.003859   0.006039
     9  H   -0.031039  -0.030848   0.581464  -0.002205  -0.004442  -0.000004
    10  H   -0.005212   0.005574  -0.002205   0.612031  -0.037720   0.005938
    11  H    0.005545  -0.003859  -0.004442  -0.037720   0.617122  -0.002704
    12  H   -0.000113   0.006039  -0.000004   0.005938  -0.002704   0.616977
    13  H   -0.000034   0.000044  -0.000182  -0.002820  -0.004094  -0.038493
    14  H    0.002661   0.000413  -0.000099  -0.000183  -0.000006  -0.005095
    15  H    0.000382   0.000082  -0.000026   0.005726   0.000017   0.006038
    16  H    0.000008   0.000000   0.000000   0.000001   0.000003   0.000017
    17  H    0.000010   0.000002   0.000000   0.000010   0.000001   0.005726
    18  H    0.000000   0.000000   0.000000   0.000002   0.000000   0.000082
    19  H    0.000000   0.000000   0.000000   0.000000   0.000000  -0.000026
    20  H    0.000000   0.000000   0.000000   0.000010   0.000008   0.000382
              13         14         15         16         17         18
     1  C    0.005418   0.003345  -0.000615   0.000000  -0.000017   0.000000
     2  C   -0.036053  -0.005451  -0.003099  -0.000163   0.000077  -0.000027
     3  C    0.373264  -0.040359  -0.042240   0.004976  -0.007223  -0.000651
     4  C   -0.040359   0.373264   0.371929  -0.035515  -0.038663  -0.004868
     5  C   -0.005451  -0.036053  -0.038664   0.374630   0.376578  -0.037191
     6  C    0.003345   0.005418  -0.007152  -0.041661  -0.041197   0.377960
     7  H   -0.000034   0.002661   0.000382   0.000008   0.000010   0.000000
     8  H    0.000044   0.000413   0.000082   0.000000   0.000002   0.000000
     9  H   -0.000182  -0.000099  -0.000026   0.000000   0.000000   0.000000
    10  H   -0.002820  -0.000183   0.005726   0.000001   0.000010   0.000002
    11  H   -0.004094  -0.000006   0.000017   0.000003   0.000001   0.000000
    12  H   -0.038493  -0.005095   0.006038   0.000017   0.005726   0.000082
    13  H    0.610587   0.005869  -0.005095  -0.000006  -0.000183   0.000413
    14  H    0.005869   0.610587  -0.038493  -0.004094  -0.002820   0.000044
    15  H   -0.005095  -0.038493   0.616977  -0.002704   0.005938   0.006039
    16  H   -0.000006  -0.004094  -0.002704   0.617122  -0.037720  -0.003859
    17  H   -0.000183  -0.002820   0.005938  -0.037720   0.612032   0.005574
    18  H    0.000413   0.000044   0.006039  -0.003859   0.005574   0.579750
    19  H   -0.000099  -0.000182  -0.000004  -0.004442  -0.002205  -0.030848
    20  H    0.002661  -0.000034  -0.000113   0.005545  -0.005212  -0.032174
              19         20
     1  C    0.000000   0.000000
     2  C    0.000000  -0.000119
     3  C    0.000150   0.002696
     4  C    0.004782  -0.004952
     5  C   -0.030473  -0.035343
     6  C    0.373012   0.379044
     7  H    0.000000   0.000000
     8  H    0.000000   0.000000
     9  H    0.000000   0.000000
    10  H    0.000000   0.000010
    11  H    0.000000   0.000008
    12  H   -0.000026   0.000382
    13  H   -0.000099   0.002661
    14  H   -0.000182  -0.000034
    15  H   -0.000004  -0.000113
    16  H   -0.004442   0.005545
    17  H   -0.002205  -0.005212
    18  H   -0.030848  -0.032174
    19  H    0.581464  -0.031039
    20  H   -0.031039   0.572631
 Mulliken charges:
               1
     1  C   -0.441659
     2  C   -0.248139
     3  C   -0.249374
     4  C   -0.249374
     5  C   -0.248139
     6  C   -0.441659
     7  H    0.146009
     8  H    0.139755
     9  H    0.139910
    10  H    0.129292
    11  H    0.127861
    12  H    0.125080
    13  H    0.131267
    14  H    0.131267
    15  H    0.125080
    16  H    0.127861
    17  H    0.129291
    18  H    0.139755
    19  H    0.139910
    20  H    0.146009
 Sum of Mulliken charges =   0.00000
 Mulliken charges with hydrogens summed into heavy atoms:
               1
     1  C   -0.015986
     2  C    0.009014
     3  C    0.006972
     4  C    0.006973
     5  C    0.009014
     6  C   -0.015986
 Electronic spatial extent (au):  <R**2>=            962.8067
 Charge=              0.0000 electrons
 Dipole moment (field-independent basis, Debye):
    X=              0.0000    Y=              0.0000    Z=              0.0000  Tot=              0.0000
 Quadrupole moment (field-independent basis, Debye-Ang):
   XX=            -42.1430   YY=            -41.6392   ZZ=            -40.9545
   XY=              0.4365   XZ=             -0.0292   YZ=             -0.0801
 Traceless Quadrupole moment (field-independent basis, Debye-Ang):
   XX=             -0.5641   YY=             -0.0603   ZZ=              0.6244
   XY=              0.4365   XZ=             -0.0292   YZ=             -0.0801
 Octapole moment (field-independent basis, Debye-Ang**2):
  XXX=              0.0000  YYY=              0.0000  ZZZ=              0.0000  XYY=              0.0000
  XXY=              0.0000  XXZ=              0.0000  XZZ=              0.0000  YZZ=              0.0000
  YYZ=              0.0000  XYZ=              0.0000
 Hexadecapole moment (field-independent basis, Debye-Ang**3):
 XXXX=          -1047.4051 YYYY=           -182.8472 ZZZZ=            -99.2440 XXXY=             10.8676
 XXXZ=              4.6082 YYYX=              1.2392 YYYZ=             -2.2604 ZZZX=             -1.7125
 ZZZY=              1.7282 XXYY=           -209.3928 XXZZ=           -190.6366 YYZZ=            -48.3151
 XXYZ=             -1.3284 YYXZ=             -0.3178 ZZXY=             -0.2102
 N-N= 2.505969144519D+02 E-N=-1.048234115295D+03  KE= 2.347535518684D+02
 No NMR shielding tensors so no spin-rotation constants.
 Leave Link  601 at Thu Mar 19 18:06:04 2026, MaxMem=   536870912 cpu:         0.0
 (Enter C:\G09W\l701.exe)
 Compute integral first derivatives.
 ... and contract with generalized density number  0.
 Leave Link  701 at Thu Mar 19 18:06:04 2026, MaxMem=   536870912 cpu:         0.0
 (Enter C:\G09W\l702.exe)
 L702 exits ... SP integral derivatives will be done elsewhere.
 Leave Link  702 at Thu Mar 19 18:06:05 2026, MaxMem=   536870912 cpu:         0.0
 (Enter C:\G09W\l703.exe)
 Compute integral first derivatives, UseDBF=F ICtDFT=           0.
 Integral derivatives from FoFJK, PRISM(SPDF).
 Calling FoFJK, ICntrl=      2127 FMM=F ISym2X=0 I1Cent= 0 IOpClX= 0 NMat=1 NMatS=1 NMatT=0.
 FoFJK:  IHMeth= 1 ICntrl=    2127 DoSepK=F KAlg= 0 I1Cent=   0 FoldK=F
 IRaf=         0 NMat=   1 IRICut=       1 DoRegI=T DoRafI=F ISym2E= 0.
 FoFCou: FMM=F IPFlag=           0 FMFlag=      100000 FMFlg1=         800
         NFxFlg=           0 DoJE=F BraDBF=F KetDBF=F FulRan=T
         wScrn=  0.000000 ICntrl=    2127 IOpCl=  0 I1Cent=           0 NGrid=           0
         NMat0=    1 NMatS0=      1 NMatT0=    0 NMatD0=    1 NMtDS0=    0 NMtDT0=    0
 Symmetry not used in FoFCou.
 Leave Link  703 at Thu Mar 19 18:06:07 2026, MaxMem=   536870912 cpu:         2.0
 (Enter C:\G09W\l716.exe)
 Dipole        = 2.98648542D-07 3.02366727D-08 4.34446311D-07
 ***** Axes restored to original set *****
 -------------------------------------------------------------------
 Center     Atomic                   Forces (Hartrees/Bohr)
 Number     Number              X              Y              Z
 -------------------------------------------------------------------
      1        6           0.004401338   -0.000054608    0.003802175
      2        6           0.000779604    0.001657881   -0.005332324
      3        6          -0.000628724    0.003724469    0.006976724
      4        6           0.000629184   -0.003723862   -0.006976374
      5        6          -0.000779230   -0.001658984    0.005331115
      6        6          -0.004402322    0.000055073   -0.003801738
      7        1           0.000731069   -0.002019851   -0.000284949
      8        1           0.000670773   -0.001405543   -0.001056178
      9        1           0.001984425   -0.001543265    0.000220774
     10        1          -0.001111415    0.001468549    0.001131282
     11        1           0.000214501    0.002219936    0.000608652
     12        1           0.000271197   -0.000745064   -0.001806530
     13        1          -0.001878414    0.000150308   -0.001646069
     14        1           0.001878335   -0.000150574    0.001646051
     15        1          -0.000271181    0.000745079    0.001806516
     16        1          -0.000214614   -0.002219830   -0.000608613
     17        1           0.001111207   -0.001468331   -0.001130608
     18        1          -0.000670736    0.001405440    0.001056001
     19        1          -0.001984124    0.001543398   -0.000220739
     20        1          -0.000730873    0.002019781    0.000284831
 -------------------------------------------------------------------
 Cartesian Forces:  Max     0.006976724 RMS     0.002333291
 Leave Link  716 at Thu Mar 19 18:06:08 2026, MaxMem=   536870912 cpu:         0.0
 (Enter C:\G09W\l103.exe)

 GradGradGradGradGradGradGradGradGradGradGradGradGradGradGradGradGradGrad
 Berny optimization.
 FormGI is forming the generalized inverse of G from B-inverse, IUseBI=4.
 Internal  Forces:  Max     0.009142934 RMS     0.002160630
 Search for a local minimum.
 Step number   1 out of a maximum of  110
 All quantities printed in internal units (Hartrees-Bohrs-Radians)
 RMS Force = .21606D-02 SwitMx=.10000D-02 MixMth= 1
 Mixed Optimization -- RFO/linear search
 Second derivative matrix not updated -- first step.
 ITU=  0
     Eigenvalues ---    0.00354   0.00354   0.00355   0.00489   0.00489
     Eigenvalues ---    0.03474   0.03474   0.03491   0.03491   0.04825
     Eigenvalues ---    0.04825   0.04870   0.04870   0.05531   0.05531
     Eigenvalues ---    0.05718   0.05718   0.08421   0.08421   0.08514
     Eigenvalues ---    0.08514   0.12270   0.12270   0.12333   0.12333
     Eigenvalues ---    0.16000   0.16000   0.16000   0.16000   0.16000
     Eigenvalues ---    0.16000   0.21932   0.21932   0.21940   0.21940
     Eigenvalues ---    0.29319   0.29319   0.29323   0.30278   0.30279
     Eigenvalues ---    0.34051   0.34051   0.34054   0.34054   0.34107
     Eigenvalues ---    0.34107   0.34151   0.34151   0.34261   0.34261
     Eigenvalues ---    0.34294   0.34294   0.34385   0.34385
 RFO step:  Lambda=-2.31835626D-03 EMin= 3.54103332D-03
 Linear search not attempted -- first point.
 Iteration  1 RMS(Cart)=  0.03580682 RMS(Int)=  0.00018185
 Iteration  2 RMS(Cart)=  0.00023108 RMS(Int)=  0.00012001
 Iteration  3 RMS(Cart)=  0.00000006 RMS(Int)=  0.00012001
 ITry= 1 IFail=0 DXMaxC= 1.29D-01 DCOld= 1.00D+10 DXMaxT= 3.00D-01 DXLimC= 3.00D+00 Rises=F
 Variable       Old X    -DE/DX   Delta X   Delta X   Delta X     New X
                                 (Linear)    (Quad)   (Total)
    R1        2.87412   0.00914   0.00000   0.02996   0.02996   2.90408
    R2        2.06686   0.00113   0.00000   0.00325   0.00325   2.07011
    R3        2.06837   0.00162   0.00000   0.00469   0.00469   2.07306
    R4        2.06891   0.00119   0.00000   0.00345   0.00345   2.07237
    R5        2.89342   0.00613   0.00000   0.02073   0.02073   2.91416
    R6        2.07150   0.00175   0.00000   0.00511   0.00511   2.07661
    R7        2.07239   0.00150   0.00000   0.00436   0.00436   2.07676
    R8        2.89335   0.00386   0.00000   0.01306   0.01306   2.90640
    R9        2.07244   0.00197   0.00000   0.00574   0.00574   2.07818
   R10        2.07076   0.00140   0.00000   0.00407   0.00407   2.07483
   R11        2.89342   0.00613   0.00000   0.02074   0.02074   2.91416
   R12        2.07076   0.00140   0.00000   0.00407   0.00407   2.07483
   R13        2.07244   0.00197   0.00000   0.00574   0.00574   2.07818
   R14        2.87411   0.00914   0.00000   0.02997   0.02997   2.90408
   R15        2.07239   0.00150   0.00000   0.00436   0.00436   2.07676
   R16        2.07151   0.00175   0.00000   0.00510   0.00510   2.07661
   R17        2.06837   0.00162   0.00000   0.00469   0.00469   2.07306
   R18        2.06891   0.00119   0.00000   0.00345   0.00345   2.07237
   R19        2.06686   0.00113   0.00000   0.00325   0.00325   2.07011
    A1        1.94743   0.00161   0.00000   0.00950   0.00940   1.95683
    A2        1.93839   0.00020   0.00000  -0.00134  -0.00134   1.93706
    A3        1.92028   0.00287   0.00000   0.02065   0.02054   1.94082
    A4        1.89362  -0.00161   0.00000  -0.01535  -0.01533   1.87829
    A5        1.87691  -0.00177   0.00000  -0.00605  -0.00625   1.87066
    A6        1.88504  -0.00151   0.00000  -0.00853  -0.00855   1.87649
    A7        1.98326   0.00398   0.00000   0.02222   0.02210   2.00537
    A8        1.91084  -0.00052   0.00000  -0.00171  -0.00157   1.90926
    A9        1.89179  -0.00079   0.00000   0.00614   0.00591   1.89770
   A10        1.91871  -0.00220   0.00000  -0.01779  -0.01777   1.90093
   A11        1.89153  -0.00062   0.00000   0.00450   0.00420   1.89573
   A12        1.86364  -0.00006   0.00000  -0.01524  -0.01526   1.84838
   A13        1.97690   0.00482   0.00000   0.02559   0.02547   2.00237
   A14        1.91258  -0.00180   0.00000  -0.01153  -0.01135   1.90122
   A15        1.87828   0.00001   0.00000   0.01491   0.01477   1.89305
   A16        1.91585  -0.00159   0.00000  -0.01373  -0.01369   1.90216
   A17        1.91193  -0.00195   0.00000  -0.00512  -0.00559   1.90634
   A18        1.86464   0.00031   0.00000  -0.01170  -0.01175   1.85289
   A19        1.97690   0.00482   0.00000   0.02559   0.02547   2.00237
   A20        1.91193  -0.00195   0.00000  -0.00512  -0.00559   1.90634
   A21        1.91585  -0.00159   0.00000  -0.01373  -0.01369   1.90216
   A22        1.87828   0.00001   0.00000   0.01491   0.01476   1.89305
   A23        1.91258  -0.00180   0.00000  -0.01153  -0.01135   1.90122
   A24        1.86464   0.00031   0.00000  -0.01170  -0.01175   1.85289
   A25        1.98327   0.00398   0.00000   0.02222   0.02210   2.00537
   A26        1.89153  -0.00062   0.00000   0.00450   0.00420   1.89573
   A27        1.91870  -0.00220   0.00000  -0.01779  -0.01777   1.90093
   A28        1.89179  -0.00079   0.00000   0.00614   0.00591   1.89770
   A29        1.91084  -0.00052   0.00000  -0.00171  -0.00157   1.90926
   A30        1.86364  -0.00006   0.00000  -0.01524  -0.01526   1.84838
   A31        1.93839   0.00020   0.00000  -0.00134  -0.00134   1.93706
   A32        1.92028   0.00287   0.00000   0.02065   0.02054   1.94082
   A33        1.94743   0.00161   0.00000   0.00949   0.00940   1.95683
   A34        1.88504  -0.00151   0.00000  -0.00853  -0.00855   1.87649
   A35        1.89362  -0.00161   0.00000  -0.01535  -0.01533   1.87828
   A36        1.87691  -0.00177   0.00000  -0.00605  -0.00625   1.87066
    D1       -1.16175   0.00114   0.00000   0.03248   0.03258  -1.12917
    D2        0.99087   0.00072   0.00000   0.02382   0.02390   1.01477
    D3        3.01762  -0.00007   0.00000   0.00814   0.00814   3.02576
    D4        0.95344   0.00033   0.00000   0.01849   0.01851   0.97195
    D5        3.10606  -0.00009   0.00000   0.00982   0.00983   3.11589
    D6       -1.15038  -0.00088   0.00000  -0.00586  -0.00592  -1.15630
    D7        3.03963   0.00044   0.00000   0.02040   0.02039   3.06002
    D8       -1.09093   0.00002   0.00000   0.01173   0.01171  -1.07922
    D9        0.93582  -0.00078   0.00000  -0.00394  -0.00405   0.93177
   D10        1.16423  -0.00039   0.00000  -0.01440  -0.01460   1.14963
   D11       -0.98149  -0.00037   0.00000  -0.00602  -0.00611  -0.98759
   D12       -3.00288   0.00021   0.00000   0.00571   0.00577  -2.99711
   D13       -0.98408  -0.00090   0.00000  -0.01462  -0.01469  -0.99877
   D14       -3.12980  -0.00088   0.00000  -0.00624  -0.00620  -3.13600
   D15        1.13199  -0.00031   0.00000   0.00549   0.00568   1.13767
   D16       -3.01499   0.00074   0.00000   0.01086   0.01075  -3.00424
   D17        1.12248   0.00076   0.00000   0.01924   0.01925   1.14172
   D18       -0.89892   0.00133   0.00000   0.03096   0.03113  -0.86780
   D19       -3.14159   0.00000   0.00000   0.00000   0.00000  -3.14159
   D20       -1.04458   0.00182   0.00000   0.03227   0.03222  -1.01236
   D21        0.99769   0.00013   0.00000   0.00712   0.00719   1.00487
   D22       -0.99768  -0.00013   0.00000  -0.00712  -0.00720  -1.00487
   D23        1.09933   0.00170   0.00000   0.02515   0.02503   1.12436
   D24       -3.14159   0.00000   0.00000   0.00000   0.00000  -3.14159
   D25        1.04459  -0.00182   0.00000  -0.03228  -0.03223   1.01236
   D26       -3.14159   0.00000   0.00000   0.00000   0.00000  -3.14159
   D27       -1.09933  -0.00170   0.00000  -0.02516  -0.02504  -1.12436
   D28       -1.16424   0.00039   0.00000   0.01440   0.01461  -1.14963
   D29        3.01498  -0.00074   0.00000  -0.01085  -0.01075   3.00424
   D30        0.98408   0.00090   0.00000   0.01462   0.01469   0.99877
   D31        3.00288  -0.00021   0.00000  -0.00570  -0.00577   2.99711
   D32        0.89892  -0.00133   0.00000  -0.03096  -0.03112   0.86780
   D33       -1.13199   0.00031   0.00000  -0.00548  -0.00568  -1.13767
   D34        0.98148   0.00037   0.00000   0.00602   0.00611   0.98759
   D35       -1.12248  -0.00076   0.00000  -0.01924  -0.01924  -1.14172
   D36        3.12980   0.00088   0.00000   0.00624   0.00620   3.13600
   D37       -0.95344  -0.00033   0.00000  -0.01849  -0.01851  -0.97195
   D38       -3.03963  -0.00044   0.00000  -0.02040  -0.02039  -3.06002
   D39        1.16175  -0.00114   0.00000  -0.03249  -0.03258   1.12917
   D40        1.15038   0.00088   0.00000   0.00585   0.00592   1.15630
   D41       -0.93581   0.00078   0.00000   0.00394   0.00404  -0.93177
   D42       -3.01762   0.00007   0.00000  -0.00815  -0.00814  -3.02576
   D43       -3.10606   0.00009   0.00000  -0.00982  -0.00983  -3.11589
   D44        1.09094  -0.00002   0.00000  -0.01174  -0.01171   1.07922
   D45       -0.99087  -0.00072   0.00000  -0.02382  -0.02390  -1.01477
         Item               Value     Threshold  Converged?
 Maximum Force            0.009143     0.000450     NO 
 RMS     Force            0.002161     0.000300     NO 
 Maximum Displacement     0.128516     0.001800     NO 
 RMS     Displacement     0.035873     0.001200     NO 
 Predicted change in Energy=-1.190076D-03
 Lowest energy point so far.  Saving SCF results.
 GradGradGradGradGradGradGradGradGradGradGradGradGradGradGradGradGradGrad

 Leave Link  103 at Thu Mar 19 18:06:08 2026, MaxMem=   536870912 cpu:         0.0
 (Enter C:\G09W\l202.exe)
                          Input orientation:                          
 ---------------------------------------------------------------------
 Center     Atomic      Atomic             Coordinates (Angstroms)
 Number     Number       Type             X           Y           Z
 ---------------------------------------------------------------------
      1          6           0        2.787863   -0.107627    0.350186
      2          6           0        1.706175    0.979970    0.256598
      3          6           0        0.396703    0.536241   -0.426394
      4          6           0       -0.396704   -0.536242    0.338941
      5          6           0       -1.706175   -0.979970   -0.344052
      6          6           0       -2.787862    0.107628   -0.437641
      7          1           0        2.479063   -0.942631    0.988490
      8          1           0        3.021215   -0.515952   -0.640907
      9          1           0        3.718453    0.293594    0.769306
     10          1           0        1.474141    1.351492    1.264418
     11          1           0        2.115611    1.838442   -0.293971
     12          1           0        0.629298    0.159015   -1.432873
     13          1           0       -0.237386    1.420917   -0.570553
     14          1           0        0.237385   -1.420918    0.483101
     15          1           0       -0.629300   -0.159015    1.345420
     16          1           0       -2.115614   -1.838441    0.206517
     17          1           0       -1.474140   -1.351493   -1.351871
     18          1           0       -3.021214    0.515955    0.553450
     19          1           0       -3.718452   -0.293592   -0.856763
     20          1           0       -2.479059    0.942631   -1.075946
 ---------------------------------------------------------------------
                    Distance matrix (angstroms):
                    1          2          3          4          5
     1  C    0.000000
     2  C    1.536774   0.000000
     3  C    2.595244   1.542106   0.000000
     4  C    3.213301   2.593796   1.538003   0.000000
     5  C    4.630262   3.980738   2.593795   1.542105   0.000000
     6  C    5.635221   4.630260   3.213298   2.595243   1.536773
     7  H    1.095455   2.197593   2.919792   2.976088   4.392412
     8  H    1.097017   2.184634   2.835699   3.555655   4.759375
     9  H    1.096649   2.187063   3.538729   4.219995   5.682264
    10  H    2.165806   1.098895   2.164336   2.814268   4.258791
    11  H    2.157323   1.098972   2.160534   3.514460   4.748895
    12  H    2.812437   2.165166   1.099727   2.162264   2.817313
    13  H    3.512312   2.157786   1.097953   2.164032   2.823633
    14  H    2.871818   2.823634   2.164032   1.097953   2.157786
    15  H    3.559513   2.817314   2.162264   1.099727   2.165165
    16  H    5.201965   4.748896   3.514460   2.160535   1.098972
    17  H    4.754879   4.258790   2.814267   2.164336   1.098895
    18  H    5.845986   4.759374   3.555652   2.835699   2.184634
    19  H    6.619927   5.682262   4.219992   3.538728   2.187063
    20  H    5.556740   4.392408   2.976084   2.919790   2.197592
                    6          7          8          9         10
     6  C    0.000000
     7  H    5.556742   0.000000
     8  H    5.845984   1.769439   0.000000
     9  H    6.619927   1.764194   1.769239   0.000000
    10  H    4.754878   2.519723   3.083999   2.530064   0.000000
    11  H    5.201962   3.084018   2.546301   2.467025   1.754189
    12  H    3.559509   3.240101   2.608459   3.796128   3.067758
    13  H    2.871815   3.923782   3.791423   4.326054   2.510231
    14  H    3.512312   2.347189   3.135613   3.890926   3.134689
    15  H    2.812436   3.225425   4.171229   4.409049   2.590879
    16  H    2.157323   4.746052   5.371602   6.236878   4.917435
    17  H    2.165806   4.612187   4.627290   5.845402   4.779483
    18  H    1.097017   5.706994   6.245179   6.746788   4.627290
    19  H    1.096649   6.498877   6.746788   7.635211   5.845402
    20  H    1.095455   5.692019   5.706990   6.498874   4.612186
                   11         12         13         14         15
    11  H    0.000000
    12  H    2.515293   0.000000
    13  H    2.405706   1.757024   0.000000
    14  H    3.841224   2.514108   3.067836   0.000000
    15  H    3.769877   3.066614   2.514107   1.757024   0.000000
    16  H    5.627897   3.769877   3.841223   2.405707   2.515294
    17  H    4.917433   2.590878   3.134689   2.510231   3.067758
    18  H    5.371598   4.171225   3.135608   3.791423   2.608459
    19  H    6.236874   4.409045   3.890922   4.326054   3.796127
    20  H    4.746047   3.225420   2.347185   3.923781   3.240100
                   16         17         18         19         20
    16  H    0.000000
    17  H    1.754189   0.000000
    18  H    2.546302   3.083999   0.000000
    19  H    2.467025   2.530064   1.769239   0.000000
    20  H    3.084018   2.519723   1.769439   1.764194   0.000000
 Stoichiometry    C6H14
 Framework group  C1[X(C6H14)]
 Deg. of freedom    54
 Full point group                 C1      NOp   1
 RotChk:  IX=3 Diff= 3.71D-03
 Largest Abelian subgroup         C1      NOp   1
 Largest concise Abelian subgroup C1      NOp   1
                         Standard orientation:                         
 ---------------------------------------------------------------------
 Center     Atomic      Atomic             Coordinates (Angstroms)
 Number     Number       Type             X           Y           Z
 ---------------------------------------------------------------------
      1          6           0        2.774296   -0.485830   -0.078615
      2          6           0        1.848999    0.709310    0.199124
      3          6           0        0.411256    0.555611   -0.336937
      4          6           0       -0.411257   -0.555612    0.336939
      5          6           0       -1.848999   -0.709310   -0.199124
      6          6           0       -2.774295    0.485831    0.078613
      7          1           0        2.442801   -1.392974    0.438320
      8          1           0        2.814100   -0.710843   -1.151569
      9          1           0        3.798887   -0.279737    0.253617
     10          1           0        1.807701    0.894999    1.281429
     11          1           0        2.294274    1.610872   -0.244334
     12          1           0        0.452504    0.364039   -1.419064
     13          1           0       -0.109341    1.514697   -0.215964
     14          1           0        0.109340   -1.514698    0.215967
     15          1           0       -0.452506   -0.364039    1.419065
     16          1           0       -2.294277   -1.610871    0.244334
     17          1           0       -1.807700   -0.895000   -1.281428
     18          1           0       -2.814099    0.710845    1.151567
     19          1           0       -3.798885    0.279739   -0.253620
     20          1           0       -2.442797    1.392974   -0.438322
 ---------------------------------------------------------------------
 Rotational constants (GHZ):      8.9363941      1.4032130      1.3041472
 Leave Link  202 at Thu Mar 19 18:06:08 2026, MaxMem=   536870912 cpu:         0.0
 (Enter C:\G09W\l301.exe)
 Standard basis: 6-31G(d) (6D, 7F)
 Ernie: Thresh=  0.10000D-02 Tol=  0.10000D-05 Strict=F.
 There are   118 symmetry adapted cartesian basis functions of A   symmetry.
 There are   118 symmetry adapted basis functions of A   symmetry.
   118 basis functions,   224 primitive gaussians,   118 cartesian basis functions
    25 alpha electrons       25 beta electrons
       nuclear repulsion energy       248.0799050425 Hartrees.
 IExCor=  402 DFT=T Ex+Corr=B3LYP ExCW=0 ScaHFX=  0.200000
 ScaDFX=  0.800000  0.720000  1.000000  0.810000 ScalE2=  1.000000  1.000000
 IRadAn=      0 IRanWt=     -1 IRanGd=            0 ICorTp=0 IEmpDi=  4
 NAtoms=   20 NActive=   20 NUniq=   20 SFac= 1.00D+00 NAtFMM=   60 NAOKFM=F Big=F
 Integral buffers will be    131072 words long.
 Raffenetti 2 integral format.
 Two-electron integral symmetry is turned on.
 Leave Link  301 at Thu Mar 19 18:06:08 2026, MaxMem=   536870912 cpu:         0.0
 (Enter C:\G09W\l302.exe)
 NPDir=0 NMtPBC=     1 NCelOv=     1 NCel=       1 NClECP=     1 NCelD=      1
         NCelK=      1 NCelE2=     1 NClLst=     1 CellRange=     0.0.
 One-electron integrals computed using PRISM.
 NBasis=   118 RedAO= T EigKep=  4.30D-03  NBF=   118
 NBsUse=   118 1.00D-06 EigRej= -1.00D+00 NBFU=   118
 Precomputing XC quadrature grid using
 IXCGrd= 4 IRadAn=           0 IRanWt=          -1 IRanGd=           0 AccXCQ= 0.00D+00.
 Generated NRdTot=       0 NPtTot=           0 NUsed=           0 NTot=          32
 NSgBfM=   118   118   118   118   118 MxSgAt=    20 MxSgA2=    20.
 Leave Link  302 at Thu Mar 19 18:06:09 2026, MaxMem=   536870912 cpu:         1.0
 (Enter C:\G09W\l303.exe)
 DipDrv:  MaxL=1.
 Leave Link  303 at Thu Mar 19 18:06:09 2026, MaxMem=   536870912 cpu:         0.0
 (Enter C:\G09W\l401.exe)
 Initial guess from the checkpoint file:  "hexane_rdkit.chk"
 B after Tr=     0.000000    0.000000    0.000000
         Rot=    0.999999    0.000004    0.000444   -0.000897 Ang=   0.11 deg.
 Guess basis will be translated and rotated to current coordinates.
 JPrj=2 DoOrth=T DoCkMO=T.
 Generating alternative initial guess.
 ExpMin= 1.61D-01 ExpMax= 3.05D+03 ExpMxC= 4.57D+02 IAcc=1 IRadAn=         1 AccDes= 0.00D+00
 Harris functional with IExCor=  402 and IRadAn=       1 diagonalized for initial guess.
 HarFok:  IExCor=  402 AccDes= 0.00D+00 IRadAn=         1 IDoV= 1 UseB2=F ITyADJ=14
 ICtDFT=  3500011 ScaDFX=  1.000000  1.000000  1.000000  1.000000
 FoFCou: FMM=F IPFlag=           0 FMFlag=      100000 FMFlg1=           0
         NFxFlg=           0 DoJE=T BraDBF=F KetDBF=T FulRan=T
         wScrn=  0.000000 ICntrl=     500 IOpCl=  0 I1Cent=   200000004 NGrid=           0
         NMat0=    1 NMatS0=      1 NMatT0=    0 NMatD0=    1 NMtDS0=    0 NMtDT0=    0
 Petite list used in FoFCou.
 Harris En= -237.167791372832    
 Leave Link  401 at Thu Mar 19 18:06:10 2026, MaxMem=   536870912 cpu:         1.0
 (Enter C:\G09W\l502.exe)
 Closed shell SCF:
 Using DIIS extrapolation, IDIIS=  1040.
 Integral symmetry usage will be decided dynamically.
 Keep R1 ints in memory in canonical form, NReq=25653273.
 IVT=       61948 IEndB=       61948 NGot=   536870912 MDV=   512158234
 LenX=   512158234 LenY=   512143869
 Requested convergence on RMS density matrix=1.00D-08 within 128 cycles.
 Requested convergence on MAX density matrix=1.00D-06.
 Requested convergence on             energy=1.00D-06.
 No special actions if energy rises.
 FoFCou: FMM=F IPFlag=           0 FMFlag=           0 FMFlg1=           0
         NFxFlg=           0 DoJE=F BraDBF=F KetDBF=F FulRan=T
         wScrn=  0.000000 ICntrl=     600 IOpCl=  0 I1Cent=           0 NGrid=           0
         NMat0=    1 NMatS0=   7021 NMatT0=    0 NMatD0=    1 NMtDS0=    0 NMtDT0=    0
 Symmetry not used in FoFCou.
 Integral accuracy reduced to 1.0D-05 until final iterations.

 Cycle   1  Pass 0  IDiag  1:
 E= -237.082148285360    
 DIIS: error= 1.02D-03 at cycle   1 NSaved=   1.
 NSaved= 1 IEnMin= 1 EnMin= -237.082148285360     IErMin= 1 ErrMin= 1.02D-03
 ErrMax= 1.02D-03  0.00D+00 EMaxC= 1.00D-01 BMatC= 2.54D-04 BMatP= 2.54D-04
 IDIUse=3 WtCom= 9.90D-01 WtEn= 1.02D-02
 Coeff-Com:  0.100D+01
 Coeff-En:   0.100D+01
 Coeff:      0.100D+01
 Gap=     1.849 Goal=   None    Shift=    0.000
 GapD=    1.849 DampG=2.000 DampE=1.000 DampFc=2.0000 IDamp=-1.
 RMSDP=2.00D-04 MaxDP=1.85D-03              OVMax= 4.34D-03

 Cycle   2  Pass 0  IDiag  1:
 E= -237.082511611117     Delta-E=       -0.000363325757 Rises=F Damp=F
 DIIS: error= 3.51D-04 at cycle   2 NSaved=   2.
 NSaved= 2 IEnMin= 2 EnMin= -237.082511611117     IErMin= 2 ErrMin= 3.51D-04
 ErrMax= 3.51D-04  0.00D+00 EMaxC= 1.00D-01 BMatC= 2.41D-05 BMatP= 2.54D-04
 IDIUse=3 WtCom= 9.96D-01 WtEn= 3.51D-03
 Coeff-Com:  0.127D+00 0.873D+00
 Coeff-En:   0.000D+00 0.100D+01
 Coeff:      0.127D+00 0.873D+00
 Gap=     0.392 Goal=   None    Shift=    0.000
 RMSDP=7.85D-05 MaxDP=1.20D-03 DE=-3.63D-04 OVMax= 1.56D-03

 Cycle   3  Pass 0  IDiag  1:
 E= -237.082518341574     Delta-E=       -0.000006730457 Rises=F Damp=F
 DIIS: error= 3.86D-04 at cycle   3 NSaved=   3.
 NSaved= 3 IEnMin= 3 EnMin= -237.082518341574     IErMin= 2 ErrMin= 3.51D-04
 ErrMax= 3.86D-04  0.00D+00 EMaxC= 1.00D-01 BMatC= 1.86D-05 BMatP= 2.41D-05
 IDIUse=3 WtCom= 9.96D-01 WtEn= 3.86D-03
 Coeff-Com: -0.199D-01 0.467D+00 0.553D+00
 Coeff-En:   0.000D+00 0.427D+00 0.573D+00
 Coeff:     -0.198D-01 0.467D+00 0.553D+00
 Gap=     0.391 Goal=   None    Shift=    0.000
 RMSDP=3.76D-05 MaxDP=6.15D-04 DE=-6.73D-06 OVMax= 7.36D-04

 Cycle   4  Pass 0  IDiag  1:
 E= -237.082537740336     Delta-E=       -0.000019398762 Rises=F Damp=F
 DIIS: error= 2.25D-05 at cycle   4 NSaved=   4.
 NSaved= 4 IEnMin= 4 EnMin= -237.082537740336     IErMin= 4 ErrMin= 2.25D-05
 ErrMax= 2.25D-05  0.00D+00 EMaxC= 1.00D-01 BMatC= 7.30D-08 BMatP= 1.86D-05
 IDIUse=1 WtCom= 1.00D+00 WtEn= 0.00D+00
 Coeff-Com: -0.818D-02 0.914D-01 0.137D+00 0.780D+00
 Coeff:     -0.818D-02 0.914D-01 0.137D+00 0.780D+00
 Gap=     0.391 Goal=   None    Shift=    0.000
 RMSDP=3.04D-06 MaxDP=4.07D-05 DE=-1.94D-05 OVMax= 6.14D-05

 Initial convergence to 1.0D-05 achieved.  Increase integral accuracy.
 Cycle   5  Pass 1  IDiag  1:
 E= -237.082599291295     Delta-E=       -0.000061550960 Rises=F Damp=F
 DIIS: error= 1.99D-05 at cycle   1 NSaved=   1.
 NSaved= 1 IEnMin= 1 EnMin= -237.082599291295     IErMin= 1 ErrMin= 1.99D-05
 ErrMax= 1.99D-05  0.00D+00 EMaxC= 1.00D-01 BMatC= 4.27D-08 BMatP= 4.27D-08
 IDIUse=1 WtCom= 1.00D+00 WtEn= 0.00D+00
 Coeff-Com:  0.100D+01
 Coeff:      0.100D+01
 Gap=     0.391 Goal=   None    Shift=    0.000
 RMSDP=3.04D-06 MaxDP=4.07D-05 DE=-6.16D-05 OVMax= 6.74D-05

 Cycle   6  Pass 1  IDiag  1:
 E= -237.082599351556     Delta-E=       -0.000000060261 Rises=F Damp=F
 DIIS: error= 5.05D-06 at cycle   2 NSaved=   2.
 NSaved= 2 IEnMin= 2 EnMin= -237.082599351556     IErMin= 2 ErrMin= 5.05D-06
 ErrMax= 5.05D-06  0.00D+00 EMaxC= 1.00D-01 BMatC= 3.00D-09 BMatP= 4.27D-08
 IDIUse=1 WtCom= 1.00D+00 WtEn= 0.00D+00
 Coeff-Com:  0.633D-01 0.937D+00
 Coeff:      0.633D-01 0.937D+00
 Gap=     0.391 Goal=   None    Shift=    0.000
 RMSDP=9.67D-07 MaxDP=1.70D-05 DE=-6.03D-08 OVMax= 2.00D-05

 Cycle   7  Pass 1  IDiag  1:
 E= -237.082599351160     Delta-E=        0.000000000396 Rises=F Damp=F
 DIIS: error= 5.52D-06 at cycle   3 NSaved=   3.
 NSaved= 3 IEnMin= 2 EnMin= -237.082599351556     IErMin= 2 ErrMin= 5.05D-06
 ErrMax= 5.52D-06  0.00D+00 EMaxC= 1.00D-01 BMatC= 3.54D-09 BMatP= 3.00D-09
 IDIUse=1 WtCom= 1.00D+00 WtEn= 0.00D+00
 Coeff-Com: -0.309D-01 0.531D+00 0.500D+00
 Coeff:     -0.309D-01 0.531D+00 0.500D+00
 Gap=     0.391 Goal=   None    Shift=    0.000
 RMSDP=5.09D-07 MaxDP=8.93D-06 DE= 3.96D-10 OVMax= 1.23D-05

 Cycle   8  Pass 1  IDiag  1:
 E= -237.082599354729     Delta-E=       -0.000000003569 Rises=F Damp=F
 DIIS: error= 1.58D-07 at cycle   4 NSaved=   4.
 NSaved= 4 IEnMin= 4 EnMin= -237.082599354729     IErMin= 4 ErrMin= 1.58D-07
 ErrMax= 1.58D-07  0.00D+00 EMaxC= 1.00D-01 BMatC= 5.95D-12 BMatP= 3.00D-09
 IDIUse=1 WtCom= 1.00D+00 WtEn= 0.00D+00
 Coeff-Com: -0.768D-02 0.101D+00 0.110D+00 0.797D+00
 Coeff:     -0.768D-02 0.101D+00 0.110D+00 0.797D+00
 Gap=     0.391 Goal=   None    Shift=    0.000
 RMSDP=2.65D-08 MaxDP=3.24D-07 DE=-3.57D-09 OVMax= 6.30D-07

 Cycle   9  Pass 1  IDiag  1:
 E= -237.082599354738     Delta-E=       -0.000000000009 Rises=F Damp=F
 DIIS: error= 3.64D-08 at cycle   5 NSaved=   5.
 NSaved= 5 IEnMin= 5 EnMin= -237.082599354738     IErMin= 5 ErrMin= 3.64D-08
 ErrMax= 3.64D-08  0.00D+00 EMaxC= 1.00D-01 BMatC= 2.53D-13 BMatP= 5.95D-12
 IDIUse=1 WtCom= 1.00D+00 WtEn= 0.00D+00
 Coeff-Com: -0.358D-03 0.646D-03 0.456D-02 0.166D+00 0.830D+00
 Coeff:     -0.358D-03 0.646D-03 0.456D-02 0.166D+00 0.830D+00
 Gap=     0.391 Goal=   None    Shift=    0.000
 RMSDP=6.11D-09 MaxDP=1.04D-07 DE=-9.21D-12 OVMax= 1.72D-07

 SCF Done:  E(RB3LYP) =  -237.082599355     A.U. after    9 cycles
            NFock=  9  Conv=0.61D-08     -V/T= 2.0106
 KE= 2.345935929450D+02 PE=-1.043069747220D+03 EE= 3.233136498774D+02
 Leave Link  502 at Thu Mar 19 18:06:20 2026, MaxMem=   536870912 cpu:        10.0
 (Enter C:\G09W\l701.exe)
 Compute integral first derivatives.
 ... and contract with generalized density number  0.
 Leave Link  701 at Thu Mar 19 18:06:20 2026, MaxMem=   536870912 cpu:         0.0
 (Enter C:\G09W\l702.exe)
 L702 exits ... SP integral derivatives will be done elsewhere.
 Leave Link  702 at Thu Mar 19 18:06:21 2026, MaxMem=   536870912 cpu:         0.0
 (Enter C:\G09W\l703.exe)
 Compute integral first derivatives, UseDBF=F ICtDFT=           0.
 Integral derivatives from FoFJK, PRISM(SPDF).
 Calling FoFJK, ICntrl=      2127 FMM=F ISym2X=0 I1Cent= 0 IOpClX= 0 NMat=1 NMatS=1 NMatT=0.
 FoFJK:  IHMeth= 1 ICntrl=    2127 DoSepK=F KAlg= 0 I1Cent=   0 FoldK=F
 IRaf=         0 NMat=   1 IRICut=       1 DoRegI=T DoRafI=F ISym2E= 0.
 FoFCou: FMM=F IPFlag=           0 FMFlag=      100000 FMFlg1=         800
         NFxFlg=           0 DoJE=F BraDBF=F KetDBF=F FulRan=T
         wScrn=  0.000000 ICntrl=    2127 IOpCl=  0 I1Cent=           0 NGrid=           0
         NMat0=    1 NMatS0=      1 NMatT0=    0 NMatD0=    1 NMtDS0=    0 NMtDT0=    0
 Symmetry not used in FoFCou.
 Leave Link  703 at Thu Mar 19 18:06:24 2026, MaxMem=   536870912 cpu:         3.0
 (Enter C:\G09W\l716.exe)
 Dipole        =-6.16740454D-08 1.24782424D-07 1.33609843D-08
 ***** Axes restored to original set *****
 -------------------------------------------------------------------
 Center     Atomic                   Forces (Hartrees/Bohr)
 Number     Number              X              Y              Z
 -------------------------------------------------------------------
      1        6          -0.000924273    0.000758259   -0.000080516
      2        6          -0.000492023   -0.000858046    0.000085536
      3        6           0.000565567   -0.000648697    0.000438684
      4        6          -0.000565466    0.000648852   -0.000438570
      5        6           0.000492071    0.000857791   -0.000085736
      6        6           0.000924033   -0.000758053    0.000080578
      7        1          -0.000513665   -0.000238442   -0.000105943
      8        1           0.000027392   -0.000124866   -0.000273341
      9        1          -0.000541430    0.000399622   -0.000086180
     10        1           0.000223915    0.000175046    0.000514349
     11        1          -0.000377702   -0.000423522   -0.000127744
     12        1          -0.000030706   -0.000087877   -0.000772304
     13        1           0.000360173    0.000191833    0.000009211
     14        1          -0.000360140   -0.000191875   -0.000009228
     15        1           0.000030722    0.000087839    0.000772293
     16        1           0.000377721    0.000423568    0.000127802
     17        1          -0.000223948   -0.000175004   -0.000514283
     18        1          -0.000027347    0.000124812    0.000273314
     19        1           0.000541468   -0.000399626    0.000086152
     20        1           0.000513639    0.000238386    0.000105927
 -------------------------------------------------------------------
 Cartesian Forces:  Max     0.000924273 RMS     0.000435605
 Leave Link  716 at Thu Mar 19 18:06:24 2026, MaxMem=   536870912 cpu:         0.0
 (Enter C:\G09W\l103.exe)

 GradGradGradGradGradGradGradGradGradGradGradGradGradGradGradGradGradGrad
 Berny optimization.
 Using GEDIIS/GDIIS optimizer.
 FormGI is forming the generalized inverse of G from B-inverse, IUseBI=4.
 Internal  Forces:  Max     0.002337059 RMS     0.000615729
 Search for a local minimum.
 Step number   2 out of a maximum of  110
 All quantities printed in internal units (Hartrees-Bohrs-Radians)
 RMS Force = .61573D-03 SwitMx=.10000D-02 MixMth= 2
 Mixed Optimization -- En-DIIS/RFO-DIIS
 Update second derivatives using D2CorX and points    1    2
 DE= -8.87D-04 DEPred=-1.19D-03 R= 7.45D-01
 TightC=F SS=  1.41D+00  RLast= 1.51D-01 DXNew= 5.0454D-01 4.5179D-01
 Trust test= 7.45D-01 RLast= 1.51D-01 DXMaxT set to 4.52D-01
 ITU=  1  0
 Use linear search instead of GDIIS.
     Eigenvalues ---    0.00354   0.00354   0.00355   0.00485   0.00489
     Eigenvalues ---    0.03328   0.03342   0.03357   0.03405   0.04775
     Eigenvalues ---    0.04778   0.04818   0.04900   0.05441   0.05471
     Eigenvalues ---    0.05581   0.05582   0.08683   0.08694   0.08733
     Eigenvalues ---    0.08752   0.12456   0.12470   0.12498   0.12584
     Eigenvalues ---    0.15965   0.16000   0.16000   0.16000   0.16000
     Eigenvalues ---    0.16284   0.21929   0.21934   0.21940   0.23251
     Eigenvalues ---    0.29316   0.29319   0.29662   0.30278   0.32873
     Eigenvalues ---    0.33856   0.34051   0.34054   0.34086   0.34107
     Eigenvalues ---    0.34128   0.34151   0.34214   0.34261   0.34261
     Eigenvalues ---    0.34294   0.34369   0.34385   0.35513
[...]
 Lowest energy point so far.  Saving SCF results.
 GradGradGradGradGradGradGradGradGradGradGradGradGradGradGradGradGradGrad

 Largest change from initial coordinates is atom    8       0.051 Angstoms.
 Leave Link  103 at Thu Mar 19 18:07:20 2026, MaxMem=   536870912 cpu:         0.0
 (Enter C:\G09W\l202.exe)
                          Input orientation:                          
 ---------------------------------------------------------------------
 Center     Atomic      Atomic             Coordinates (Angstroms)
 Number     Number       Type             X           Y           Z
 ---------------------------------------------------------------------
      1          6           0        2.777445   -0.107909    0.345756
      2          6           0        1.699941    0.979314    0.252145
      3          6           0        0.395689    0.532533   -0.430603
      4          6           0       -0.395690   -0.532534    0.343149
      5          6           0       -1.699942   -0.979314   -0.339598
      6          6           0       -2.777444    0.107910   -0.433211
      7          1           0        2.454722   -0.954255    0.962352
      8          1           0        3.029305   -0.499110   -0.648210
      9          1           0        3.698156    0.288272    0.789376
     10          1           0        1.469492    1.353323    1.260213
     11          1           0        2.108805    1.835473   -0.301476
     12          1           0        0.627864    0.149249   -1.436150
     13          1           0       -0.236136    1.417712   -0.581074
     14          1           0        0.236135   -1.417713    0.493619
     15          1           0       -0.627865   -0.149250    1.348696
     16          1           0       -2.108806   -1.835472    0.214022
     17          1           0       -1.469492   -1.353324   -1.347666
     18          1           0       -3.029304    0.499111    0.560755
     19          1           0       -3.698155   -0.288270   -0.876831
     20          1           0       -2.454721    0.954255   -1.049807
 ---------------------------------------------------------------------
                    Distance matrix (angstroms):
                    1          2          3          4          5
     1  C    0.000000
     2  C    1.533568   0.000000
     3  C    2.585664   1.538451   0.000000
     4  C    3.201421   2.585659   1.536015   0.000000
     5  C    4.612596   3.968071   2.585659   1.538451   0.000000
     6  C    5.613391   4.612595   3.201420   2.585664   1.533568
     7  H    1.095738   2.193804   2.896633   2.947220   4.353956
     8  H    1.097470   2.182563   2.836824   3.565739   4.763571
     9  H    1.096114   2.181517   3.529065   4.199096   5.658693
    10  H    2.163832   1.099633   2.164626   2.806486   4.248046
    11  H    2.154698   1.098487   2.156175   3.506493   4.736141
    12  H    2.803929   2.165339   1.100880   2.162960   2.809762
    13  H    3.502599   2.152868   1.097900   2.164048   2.819001
    14  H    2.862814   2.819002   2.164048   1.097900   2.152868
    15  H    3.550173   2.809762   2.162960   1.100880   2.165339
    16  H    5.184330   4.736141   3.506493   2.156175   1.098487
    17  H    4.738693   4.248047   2.806486   2.164626   1.099633
    18  H    5.842348   4.763570   3.565738   2.836824   2.182563
    19  H    6.592469   5.658693   4.199095   3.529065   2.181517
    20  H    5.518274   4.353955   2.947219   2.896633   2.193804
                    6          7          8          9         10
     6  C    0.000000
     7  H    5.518275   0.000000
     8  H    5.842348   1.769523   0.000000
     9  H    6.592469   1.766329   1.770307   0.000000
    10  H    4.738692   2.526721   3.083278   2.514551   0.000000
    11  H    5.184328   3.082126   2.533342   2.471806   1.755010
    12  H    3.550172   3.210598   2.609240   3.794599   3.070587
    13  H    2.862812   3.905010   3.787059   4.316528   2.510706
    14  H    3.502599   2.314440   3.154267   3.870845   3.128494
    15  H    2.803929   3.209305   4.181498   4.383915   2.581561
    16  H    2.154698   4.707689   5.378615   6.209841   4.905828
    17  H    2.163832   4.571094   4.632289   5.828068   4.771226
    18  H    1.097470   5.687539   6.258178   6.734645   4.632287
    19  H    1.096114   6.456317   6.734645   7.603556   5.828067
    20  H    1.095738   5.638602   5.687538   6.456316   4.571093
                   11         12         13         14         15
    11  H    0.000000
    12  H    2.514761   0.000000
    13  H    2.398218   1.756886   0.000000
    14  H    3.836963   2.516511   3.068817   0.000000
    15  H    3.761855   3.069418   2.516511   1.756886   0.000000
    16  H    5.615143   3.761855   3.836962   2.398218   2.514760
    17  H    4.905828   2.581562   3.128493   2.510706   3.070587
    18  H    5.378613   4.181497   3.154265   3.787059   2.609240
    19  H    6.209840   4.383915   3.870843   4.316528   3.794599
    20  H    4.707687   3.209303   2.314438   3.905010   3.210599
                   16         17         18         19         20
    16  H    0.000000
    17  H    1.755011   0.000000
    18  H    2.533342   3.083278   0.000000
    19  H    2.471806   2.514551   1.770307   0.000000
    20  H    3.082126   2.526721   1.769523   1.766330   0.000000
 Stoichiometry    C6H14
 Framework group  C1[X(C6H14)]
 Deg. of freedom    54
 Full point group                 C1      NOp   1
 RotChk:  IX=3 Diff= 1.05D-15
 Largest Abelian subgroup         C1      NOp   1
 Largest concise Abelian subgroup C1      NOp   1
                         Standard orientation:                         
 ---------------------------------------------------------------------
 Center     Atomic      Atomic             Coordinates (Angstroms)
 Number     Number       Type             X           Y           Z
 ---------------------------------------------------------------------
      1          6           0        2.763213   -0.485757   -0.078975
      2          6           0        1.842412    0.708399    0.200214
      3          6           0        0.410029    0.553653   -0.339381
      4          6           0       -0.410029   -0.553654    0.339381
      5          6           0       -1.842412   -0.708399   -0.200214
      6          6           0       -2.763212    0.485758    0.078975
      7          1           0        2.412284   -1.399289    0.413924
      8          1           0        2.824452   -0.692459   -1.155063
      9          1           0        3.780364   -0.290126    0.279630
     10          1           0        1.801704    0.893186    1.283445
     11          1           0        2.287619    1.609361   -0.243330
     12          1           0        0.451492    0.359141   -1.422147
     13          1           0       -0.108624    1.514266   -0.222728
     14          1           0        0.108623   -1.514267    0.222727
     15          1           0       -0.451492   -0.359142    1.422147
     16          1           0       -2.287620   -1.609361    0.243331
     17          1           0       -1.801705   -0.893187   -1.283444
     18          1           0       -2.824451    0.692460    1.155063
     19          1           0       -3.780363    0.290127   -0.279630
     20          1           0       -2.412283    1.399289   -0.413925
 ---------------------------------------------------------------------
 Rotational constants (GHZ):      8.9408795      1.4132797      1.3135277
 Leave Link  202 at Thu Mar 19 18:07:21 2026, MaxMem=   536870912 cpu:         0.0
 (Enter C:\G09W\l601.exe)
 Copying SCF densities to generalized density rwf, IOpCl= 0 IROHF=0.

 **********************************************************************

            Population analysis using the SCF density.

 **********************************************************************

 Orbital symmetries:
       Occupied  (A) (A) (A) (A) (A) (A) (A) (A) (A) (A) (A) (A)
                 (A) (A) (A) (A) (A) (A) (A) (A) (A) (A) (A) (A)
                 (A)
       Virtual   (A) (A) (A) (A) (A) (A) (A) (A) (A) (A) (A) (A)
                 (A) (A) (A) (A) (A) (A) (A) (A) (A) (A) (A) (A)
                 (A) (A) (A) (A) (A) (A) (A) (A) (A) (A) (A) (A)
                 (A) (A) (A) (A) (A) (A) (A) (A) (A) (A) (A) (A)
                 (A) (A) (A) (A) (A) (A) (A) (A) (A) (A) (A) (A)
                 (A) (A) (A) (A) (A) (A) (A) (A) (A) (A) (A) (A)
                 (A) (A) (A) (A) (A) (A) (A) (A) (A) (A) (A) (A)
                 (A) (A) (A) (A) (A) (A) (A) (A) (A)
 The electronic state is 1-A.
 Alpha  occ. eigenvalues --  -10.17621 -10.17620 -10.17333 -10.17312 -10.16937
 Alpha  occ. eigenvalues --  -10.16937  -0.79855  -0.75878  -0.69799  -0.64547
 Alpha  occ. eigenvalues --   -0.58539  -0.55415  -0.45874  -0.44444  -0.44199
 Alpha  occ. eigenvalues --   -0.40819  -0.40225  -0.38584  -0.36025  -0.34904
 Alpha  occ. eigenvalues --   -0.34251  -0.32911  -0.31597  -0.31027  -0.30207
 Alpha virt. eigenvalues --    0.08947   0.11045   0.11949   0.12864   0.15234
 Alpha virt. eigenvalues --    0.15964   0.16587   0.17141   0.18246   0.18311
 Alpha virt. eigenvalues --    0.18768   0.19146   0.21945   0.22593   0.23952
 Alpha virt. eigenvalues --    0.25575   0.25642   0.28308   0.28902   0.50431
 Alpha virt. eigenvalues --    0.50599   0.52569   0.53855   0.54388   0.55035
 Alpha virt. eigenvalues --    0.57638   0.61921   0.66165   0.66332   0.67887
 Alpha virt. eigenvalues --    0.70258   0.70275   0.73144   0.79213   0.83184
 Alpha virt. eigenvalues --    0.84414   0.86906   0.88225   0.89139   0.89151
 Alpha virt. eigenvalues --    0.90569   0.91323   0.92611   0.94636   0.95775
 Alpha virt. eigenvalues --    0.97263   0.97546   1.00299   1.01711   1.01855
 Alpha virt. eigenvalues --    1.03749   1.11675   1.19907   1.35416   1.42551
 Alpha virt. eigenvalues --    1.44454   1.54074   1.58854   1.60311   1.65223
 Alpha virt. eigenvalues --    1.72561   1.73021   1.81007   1.81030   1.91512
 Alpha virt. eigenvalues --    1.92730   1.96881   1.98267   1.99019   2.00908
 Alpha virt. eigenvalues --    2.02149   2.11182   2.17337   2.18698   2.27186
 Alpha virt. eigenvalues --    2.29364   2.31479   2.33549   2.36026   2.40012
 Alpha virt. eigenvalues --    2.42433   2.43053   2.58509   2.62387   2.63853
 Alpha virt. eigenvalues --    2.70986   2.78625   4.10781   4.18780   4.29138
 Alpha virt. eigenvalues --    4.40975   4.45951   4.54679
          Condensed to atoms (all electrons):
               1          2          3          4          5          6
     1  C    5.066329   0.378137  -0.045183  -0.004736   0.000080  -0.000001
     2  C    0.378137   4.956560   0.381072  -0.039181   0.003768   0.000080
     3  C   -0.045183   0.381072   4.987832   0.389250  -0.039181  -0.004736
     4  C   -0.004736  -0.039181   0.389250   4.987832   0.381072  -0.045183
     5  C    0.000080   0.003768  -0.039181   0.381072   4.956560   0.378137
     6  C   -0.000001   0.000080  -0.004736  -0.045183   0.378137   5.066329
     7  H    0.378291  -0.034361  -0.004720   0.002488  -0.000107   0.000000
     8  H    0.376805  -0.036192  -0.004231  -0.000491  -0.000022   0.000000
     9  H    0.373118  -0.028571   0.004297   0.000121   0.000000   0.000000
    10  H   -0.040573   0.375099  -0.039699  -0.006879   0.000058  -0.000014
    11  H   -0.040215   0.373896  -0.034338   0.004628  -0.000144   0.000000
    12  H   -0.006571  -0.039418   0.370411  -0.042929  -0.003096  -0.000507
    13  H    0.004965  -0.034324   0.372248  -0.040498  -0.004849   0.003081
    14  H    0.003081  -0.004848  -0.040498   0.372248  -0.034324   0.004965
    15  H   -0.000507  -0.003096  -0.042929   0.370411  -0.039418  -0.006571
    16  H    0.000000  -0.000144   0.004628  -0.034338   0.373896  -0.040215
    17  H   -0.000014   0.000058  -0.006879  -0.039699   0.375099  -0.040573
    18  H    0.000000  -0.000022  -0.000491  -0.004231  -0.036192   0.376805
    19  H    0.000000   0.000000   0.000121   0.004297  -0.028571   0.373118
    20  H    0.000000  -0.000107   0.002488  -0.004720  -0.034361   0.378291
               7          8          9         10         11         12
     1  C    0.378291   0.376805   0.373118  -0.040573  -0.040215  -0.006571
     2  C   -0.034361  -0.036192  -0.028571   0.375099   0.373896  -0.039418
     3  C   -0.004720  -0.004231   0.004297  -0.039699  -0.034338   0.370411
     4  C    0.002488  -0.000491   0.000121  -0.006879   0.004628  -0.042929
     5  C   -0.000107  -0.000022   0.000000   0.000058  -0.000144  -0.003096
     6  C    0.000000   0.000000   0.000000  -0.000014   0.000000  -0.000507
     7  H    0.573114  -0.033053  -0.031306  -0.004558   0.005209  -0.000110
     8  H   -0.033053   0.581262  -0.031282   0.005376  -0.004082   0.005533
     9  H   -0.031306  -0.031282   0.578742  -0.002440  -0.003584  -0.000014
    10  H   -0.004558   0.005376  -0.002440   0.614390  -0.038598   0.005992
    11  H    0.005209  -0.004082  -0.003584  -0.038598   0.614348  -0.002666
    12  H   -0.000110   0.005533  -0.000014   0.005992  -0.002666   0.621452
    13  H   -0.000019   0.000015  -0.000159  -0.002733  -0.003910  -0.039223
    14  H    0.002829   0.000298  -0.000102  -0.000199  -0.000011  -0.005157
    15  H    0.000306   0.000069  -0.000023   0.005702   0.000003   0.006167
    16  H    0.000007   0.000000   0.000000   0.000001   0.000002   0.000003
    17  H    0.000009   0.000002   0.000000   0.000010   0.000001   0.005702
    18  H    0.000000   0.000000   0.000000   0.000002   0.000000   0.000069
    19  H    0.000000   0.000000   0.000000   0.000000   0.000000  -0.000023
    20  H    0.000000   0.000000   0.000000   0.000009   0.000007   0.000306
              13         14         15         16         17         18
     1  C    0.004965   0.003081  -0.000507   0.000000  -0.000014   0.000000
     2  C   -0.034324  -0.004848  -0.003096  -0.000144   0.000058  -0.000022
     3  C    0.372248  -0.040498  -0.042929   0.004628  -0.006879  -0.000491
     4  C   -0.040498   0.372248   0.370411  -0.034338  -0.039699  -0.004231
     5  C   -0.004849  -0.034324  -0.039418   0.373896   0.375099  -0.036192
     6  C    0.003081   0.004965  -0.006571  -0.040215  -0.040573   0.376805
     7  H   -0.000019   0.002829   0.000306   0.000007   0.000009   0.000000
     8  H    0.000015   0.000298   0.000069   0.000000   0.000002   0.000000
     9  H   -0.000159  -0.000102  -0.000023   0.000000   0.000000   0.000000
    10  H   -0.002733  -0.000199   0.005702   0.000001   0.000010   0.000002
    11  H   -0.003910  -0.000011   0.000003   0.000002   0.000001   0.000000
    12  H   -0.039223  -0.005157   0.006167   0.000003   0.005702   0.000069
    13  H    0.610809   0.005831  -0.005157  -0.000011  -0.000199   0.000298
    14  H    0.005831   0.610809  -0.039223  -0.003910  -0.002733   0.000015
    15  H   -0.005157  -0.039223   0.621452  -0.002666   0.005992   0.005533
    16  H   -0.000011  -0.003910  -0.002666   0.614348  -0.038598  -0.004082
    17  H   -0.000199  -0.002733   0.005992  -0.038598   0.614390   0.005376
    18  H    0.000298   0.000015   0.005533  -0.004082   0.005376   0.581262
    19  H   -0.000102  -0.000159  -0.000014  -0.003584  -0.002440  -0.031282
    20  H    0.002829  -0.000019  -0.000110   0.005209  -0.004558  -0.033053
              19         20
     1  C    0.000000   0.000000
     2  C    0.000000  -0.000107
     3  C    0.000121   0.002488
     4  C    0.004297  -0.004720
     5  C   -0.028571  -0.034361
     6  C    0.373118   0.378291
     7  H    0.000000   0.000000
     8  H    0.000000   0.000000
     9  H    0.000000   0.000000
    10  H    0.000000   0.000009
    11  H    0.000000   0.000007
    12  H   -0.000023   0.000306
    13  H   -0.000102   0.002829
    14  H   -0.000159  -0.000019
    15  H   -0.000014  -0.000110
    16  H   -0.003584   0.005209
    17  H   -0.002440  -0.004558
    18  H   -0.031282  -0.033053
    19  H    0.578742  -0.031306
    20  H   -0.031306   0.573114
 Mulliken charges:
               1
     1  C   -0.443007
     2  C   -0.248404
     3  C   -0.249462
     4  C   -0.249462
     5  C   -0.248404
     6  C   -0.443007
     7  H    0.145980
     8  H    0.139993
     9  H    0.141205
    10  H    0.129055
    11  H    0.129453
    12  H    0.124080
    13  H    0.131106
    14  H    0.131106
    15  H    0.124080
    16  H    0.129453
    17  H    0.129055
    18  H    0.139993
    19  H    0.141205
    20  H    0.145980
 Sum of Mulliken charges =   0.00000
 Mulliken charges with hydrogens summed into heavy atoms:
               1
     1  C   -0.015829
     2  C    0.010104
     3  C    0.005725
     4  C    0.005725
     5  C    0.010104
     6  C   -0.015829
 Electronic spatial extent (au):  <R**2>=            984.6696
 Charge=              0.0000 electrons
 Dipole moment (field-independent basis, Debye):
    X=              0.0000    Y=              0.0000    Z=              0.0000  Tot=              0.0000
 Quadrupole moment (field-independent basis, Debye-Ang):
   XX=            -41.8891   YY=            -41.5254   ZZ=            -41.1677
   XY=              0.3437   XZ=             -0.0302   YZ=             -0.0604
 Traceless Quadrupole moment (field-independent basis, Debye-Ang):
   XX=             -0.3617   YY=              0.0020   ZZ=              0.3597
   XY=              0.3437   XZ=             -0.0302   YZ=             -0.0604
 Octapole moment (field-independent basis, Debye-Ang**2):
  XXX=              0.0000  YYY=              0.0000  ZZZ=              0.0000  XYY=              0.0000
  XXY=              0.0000  XXZ=              0.0000  XZZ=              0.0000  YZZ=              0.0000
  YYZ=              0.0000  XYZ=              0.0000
 Hexadecapole moment (field-independent basis, Debye-Ang**3):
 XXXX=          -1073.4436 YYYY=           -183.1033 ZZZZ=            -99.3106 XXXY=              9.0249
 XXXZ=              5.0393 YYYX=              1.2739 YYYZ=             -2.2625 ZZZX=             -1.9158
 ZZZY=              1.7998 XXYY=           -213.8327 XXZZ=           -195.8692 YYZZ=            -48.5685
 XXYZ=             -1.1687 YYXZ=             -0.3124 ZZXY=             -0.1803
 N-N= 2.485957081296D+02 E-N=-1.044119377216D+03  KE= 2.346178397622D+02
 No NMR shielding tensors so no spin-rotation constants.
 Leave Link  601 at Thu Mar 19 18:07:21 2026, MaxMem=   536870912 cpu:         0.0
 (Enter C:\G09W\l9999.exe)
 1|1|UNPC-DESKTOP-GS7R1K3|FOpt|RB3LYP|6-31G(d)|C6H14|1172|19-Mar-2026|0
 ||#p opt B3LYP/6-31G(d)||hexane||0,1|C,2.7774446069,-0.1079088876,0.34
 57563652|C,1.6999411261,0.9793137468,0.2521445069|C,0.3956892,0.532533
 4762,-0.4306032032|C,-0.395689505,-0.5325340855,0.3431490751|C,-1.6999
 416854,-0.9793137841,-0.3395984524|C,-2.7774441882,0.1079097675,-0.433
 2110323|H,2.4547222309,-0.95425502,0.962351967|H,3.0293050379,-0.49910
 95418,-0.648210183|H,3.6981555237,0.2882717822,0.7893762774|H,1.469491
 5698,1.3533232795,1.2602127419|H,2.1088051346,1.8354729968,-0.30147596
 11|H,0.6278644695,0.1492490947,-1.4361500478|H,-0.2361359492,1.4177116
 913,-0.5810736096|H,0.2361353884,-1.4177125118,0.4936192769|H,-0.62786
 45833,-0.1492497463,1.3486959747|H,-2.1088064031,-1.8354724487,0.21402
 24042|H,-1.4694922856,-1.3533239279,-1.3476664856|H,-3.0293043355,0.49
 9111197,0.5607552756|H,-3.6981554094,-0.2882703412,-0.8768308134|H,-2.
 454720943,0.9542552628,-1.0498070767||Version=EM64W-G09RevD.01|State=1
 -A|HF=-237.0826835|RMSD=9.420e-009|RMSF=1.283e-005|Dipole=0.,0.,0.|Qua
 drupole=-0.3015446,0.0564746,0.24507,0.2003213,-0.1480224,0.0243543|PG
 =C01 [X(C6H14)]||@


 THE MEEK SHALL INHERIT THE EARTH.
 (THE REST OF US WILL ESCAPE TO THE STARS)
 Job cpu time:       0 days  0 hours  1 minutes 33.0 seconds.
 File lengths (MBytes):  RWF=      9 Int=      0 D2E=      0 Chk=      2 Scr=      1
 Normal termination of Gaussian 09 at Thu Mar 19 18:07:21 2026.
