 Entering Gaussian System, Link 0=C:\G09W\g09.exe
 Input=cyclohexanone_rdkit.com
 Output=C:\workspace\delta_chem\data\raw\cyclohexanone\cyclohexanone_rdkit.out
 Initial command:
 C:\G09W\l1.exe ".\Gau-4948.inp" "C:\workspace\delta_chem\data\raw\cyclohexanone\cyclohexanone_rdkit.out" /scrdir=".\"
 Entering Link 1 = C:\G09W\l1.exe PID=      6748.
  
 Copyright (c) 1988,1990,1992,1993,1995,1998,2003,2009,2013,
            Gaussian, Inc.  All Rights Reserved.
  
 This is part of the Gaussian(R) 09 program.  It is based on
 the Gaussian(R) 03 system (copyright 2003, Gaussian, Inc.),
 the Gaussian(R) 98 system (copyright 1998, Gaussian, Inc.),
 the Gaussian(R) 94 system (copyright 1995, Gaussian, Inc.),
 the Gaussian 92(TM) system (copyright 1992, Gaussian, Inc.),
 the Gaussian 90(TM) system (copyright 1990, Gaussian, Inc.),
 the Gaussian 88(TM) system (copyright 1988, Gaussian, Inc.),
 the Gaussian 86(TM) system (copyright 1986, Carnegie Mellon
 University), and the Gaussian 82(TM) system (copyright 1983,
 Carnegie Mellon University). Gaussian is a federally registered
 trademark of Gaussian, Inc.
  
 This software contains proprietary and confidential information,
 including trade secrets, belonging to Gaussian, Inc.
  
 This software is provided under written license and may be
 used, copied, transmitted, or stored only in accord with that
 written license.
  
 The following legend is applicable only to US Government
 contracts under FAR:
  
                    RESTRICTED RIGHTS LEGEND
  
 Use, reproduction and disclosure by the US Government is
 subject to restrictions as set forth in subparagraphs (a)
 and (c) of the Commercial Computer Software - Restricted
 Rights clause in FAR 52.227-19.
  
 Gaussian, Inc.
 340 Quinnipiac St., Bldg. 40, Wallingford CT 06492
  
  
 ---------------------------------------------------------------
 Warning -- This program may not be used in any manner that
 competes with the business of Gaussian, Inc. or will provide
 assistance to any competitor of Gaussian, Inc.  The licensee
 of this program is prohibited from giving any competitor of
 Gaussian, Inc. access to this program.  By using this program,
 the user acknowledges that Gaussian, Inc. is engaged in the
 business of creating and licensing software in the field of
 computational chemistry and represents and warrants to the
 licensee that it is not a competitor of Gaussian, Inc. and that
 it will not use this program in any manner prohibited above.
 ---------------------------------------------------------------
  

 Cite this work as:
 Gaussian 09, Revision D.01,
 M. J. Frisch, G. W. Trucks, H. B. Schlegel, G. E. Scuseria, 
 M. A. Robb, J. R. Cheeseman, G. Scalmani, V. Barone, B. Mennucci, 
 G. A. Petersson, H. Nakatsuji, M. Caricato, X. Li, H. P. Hratchian, 
 A. F. Izmaylov, J. Bloino, G. Zheng, J. L. Sonnenberg, M. Hada, 
 M. Ehara, K. Toyota, R. Fukuda, J. Hasegawa, M. Ishida, T. Nakajima, 
 Y. Honda, O. Kitao, H. Nakai, T. Vreven, J. A. Montgomery, Jr., 
 J. E. Peralta, F. Ogliaro, M. Bearpark, J. J. Heyd, E. Brothers, 
 K. N. Kudin, V. N. Staroverov, T. Keith, R. Kobayashi, J. Normand, 
 K. Raghavachari, A. Rendell, J. C. Burant, S. S. Iyengar, J. Tomasi, 
 M. Cossi, N. Rega, J. M. Millam, M. Klene, J. E. Knox, J. B. Cross, 
 V. Bakken, C. Adamo, J. Jaramillo, R. Gomperts, R. E. Stratmann, 
 O. Yazyev, A. J. Austin, R. Cammi, C. Pomelli, J. W. Ochterski, 
 R. L. Martin, K. Morokuma, V. G. Zakrzewski, G. A. Voth, 
 P. Salvador, J. J. Dannenberg, S. Dapprich, A. D. Daniels, 
 O. Farkas, J. B. Foresman, J. V. Ortiz, J. Cioslowski, 
 and D. J. Fox, Gaussian, Inc., Wallingford CT, 2013.
 
 ******************************************
 Gaussian 09:  EM64W-G09RevD.01 13-Apr-2013
                19-Mar-2026 
 ******************************************
 %NProcShared=4
 Will use up to    4 processors via shared memory.
 %Mem=4GB
 %Chk=cyclohexanone_rdkit.chk
 ---------------------
 #p opt B3LYP/6-31G(d)
 ---------------------
 1/14=-1,18=20,19=15,26=3,38=1/1,3;
 2/9=110,12=2,17=6,18=5,40=1/2;
 3/5=1,6=6,7=1,11=2,16=1,25=1,30=1,71=1,74=-5/1,2,3;
 4//1;
 5/5=2,38=5/2;
 6/7=2,8=2,9=2,10=2,28=1/1;
 7//1,2,3,16;
 1/14=-1,18=20,19=15,26=3/3(2);
 2/9=110/2;
 99//99;
 2/9=110/2;
 3/5=1,6=6,7=1,11=2,16=1,25=1,30=1,71=1,74=-5/1,2,3;
 4/5=5,16=3,69=1/1;
 5/5=2,38=5/2;
 7//1,2,3,16;
 1/14=-1,18=20,19=15,26=3/3(-5);
 2/9=110/2;
 6/7=2,8=2,9=2,10=2,19=2,28=1/1;
 99/9=1/99;
 Leave Link    1 at Thu Mar 19 18:35:11 2026, MaxMem=   536870912 cpu:         0.0
 (Enter C:\G09W\l101.exe)
 -------------
 cyclohexanone
 -------------
 Symbolic Z-matrix:
 Charge =  0 Multiplicity = 1
 O                    -2.25425   1.52311  -0.03731 
 C                    -1.23607   0.86645   0.17544 
 C                    -1.3002   -0.59853   0.54537 
 C                    -0.25922  -1.39424  -0.23002 
 C                     1.1347   -0.785    -0.09599 
 C                     1.14097   0.67001  -0.55972 
 C                     0.13125   1.5118    0.20832 
 H                    -1.13293  -0.68366   1.62454 
 H                    -2.30196  -0.98122   0.32399 
 H                    -0.53764  -1.42321  -1.29102 
 H                    -0.24627  -2.43011   0.12687 
 H                     1.46631  -0.84322   0.9478 
 H                     1.84751  -1.36399  -0.69386 
 H                     2.14387   1.0936   -0.43594 
 H                     0.90671   0.70615  -1.63111 
 H                     0.06716   2.51148  -0.23387 
 H                     0.43004   1.62058   1.25651 
 
 NAtoms=     17 NQM=       17 NQMF=       0 NMMI=      0 NMMIF=      0
                NMic=       0 NMicF=      0.
                    Isotopes and Nuclear Properties:
 (Nuclear quadrupole moments (NQMom) in fm**2, nuclear magnetic moments (NMagM)
  in nuclear magnetons)

  Atom         1           2           3           4           5           6           7           8           9          10
 IAtWgt=          16          12          12          12          12          12          12           1           1           1
 AtmWgt=  15.9949146  12.0000000  12.0000000  12.0000000  12.0000000  12.0000000  12.0000000   1.0078250   1.0078250   1.0078250
 NucSpn=           0           0           0           0           0           0           0           1           1           1
 AtZEff=   0.0000000   0.0000000   0.0000000   0.0000000   0.0000000   0.0000000   0.0000000   0.0000000   0.0000000   0.0000000
 NQMom=    0.0000000   0.0000000   0.0000000   0.0000000   0.0000000   0.0000000   0.0000000   0.0000000   0.0000000   0.0000000
 NMagM=    0.0000000   0.0000000   0.0000000   0.0000000   0.0000000   0.0000000   0.0000000   2.7928460   2.7928460   2.7928460
 AtZNuc=   8.0000000   6.0000000   6.0000000   6.0000000   6.0000000   6.0000000   6.0000000   1.0000000   1.0000000   1.0000000

  Atom        11          12          13          14          15          16          17
 IAtWgt=           1           1           1           1           1           1           1
 AtmWgt=   1.0078250   1.0078250   1.0078250   1.0078250   1.0078250   1.0078250   1.0078250
 NucSpn=           1           1           1           1           1           1           1
 AtZEff=   0.0000000   0.0000000   0.0000000   0.0000000   0.0000000   0.0000000   0.0000000
 NQMom=    0.0000000   0.0000000   0.0000000   0.0000000   0.0000000   0.0000000   0.0000000
 NMagM=    2.7928460   2.7928460   2.7928460   2.7928460   2.7928460   2.7928460   2.7928460
 AtZNuc=   1.0000000   1.0000000   1.0000000   1.0000000   1.0000000   1.0000000   1.0000000
 Leave Link  101 at Thu Mar 19 18:35:12 2026, MaxMem=   536870912 cpu:         0.0
 (Enter C:\G09W\l103.exe)

 GradGradGradGradGradGradGradGradGradGradGradGradGradGradGradGradGradGrad
 Berny optimization.
 Initialization pass.
                           ----------------------------
                           !    Initial Parameters    !
                           ! (Angstroms and Degrees)  !
 --------------------------                            --------------------------
 ! Name  Definition              Value          Derivative Info.                !
 --------------------------------------------------------------------------------
 ! R1    R(1,2)                  1.2301         estimate D2E/DX2                !
 ! R2    R(2,3)                  1.5123         estimate D2E/DX2                !
 ! R3    R(2,7)                  1.5123         estimate D2E/DX2                !
 ! R4    R(3,4)                  1.5225         estimate D2E/DX2                !
 ! R5    R(3,8)                  1.0954         estimate D2E/DX2                !
 ! R6    R(3,9)                  1.095          estimate D2E/DX2                !
 ! R7    R(4,5)                  1.5271         estimate D2E/DX2                !
 ! R8    R(4,10)                 1.0973         estimate D2E/DX2                !
 ! R9    R(4,11)                 1.0957         estimate D2E/DX2                !
 ! R10   R(5,6)                  1.5271         estimate D2E/DX2                !
 ! R11   R(5,12)                 1.0968         estimate D2E/DX2                !
 ! R12   R(5,13)                 1.0958         estimate D2E/DX2                !
 ! R13   R(6,7)                  1.5225         estimate D2E/DX2                !
 ! R14   R(6,14)                 1.0957         estimate D2E/DX2                !
 ! R15   R(6,15)                 1.0973         estimate D2E/DX2                !
 ! R16   R(7,16)                 1.095          estimate D2E/DX2                !
 ! R17   R(7,17)                 1.0954         estimate D2E/DX2                !
 ! A1    A(1,2,3)              121.6225         estimate D2E/DX2                !
 ! A2    A(1,2,7)              121.6225         estimate D2E/DX2                !
 ! A3    A(3,2,7)              116.5121         estimate D2E/DX2                !
 ! A4    A(2,3,4)              110.6526         estimate D2E/DX2                !
 ! A5    A(2,3,8)              108.0475         estimate D2E/DX2                !
 ! A6    A(2,3,9)              109.1406         estimate D2E/DX2                !
 ! A7    A(4,3,8)              110.8997         estimate D2E/DX2                !
 ! A8    A(4,3,9)              109.8699         estimate D2E/DX2                !
 ! A9    A(8,3,9)              108.1639         estimate D2E/DX2                !
 ! A10   A(3,4,5)              111.77           estimate D2E/DX2                !
 ! A11   A(3,4,10)             109.4358         estimate D2E/DX2                !
 ! A12   A(3,4,11)             109.6509         estimate D2E/DX2                !
 ! A13   A(5,4,10)             109.0867         estimate D2E/DX2                !
 ! A14   A(5,4,11)             109.742          estimate D2E/DX2                !
 ! A15   A(10,4,11)            107.0364         estimate D2E/DX2                !
 ! A16   A(4,5,6)              110.9281         estimate D2E/DX2                !
 ! A17   A(4,5,12)             109.7755         estimate D2E/DX2                !
 ! A18   A(4,5,13)             109.5768         estimate D2E/DX2                !
 ! A19   A(6,5,12)             109.7755         estimate D2E/DX2                !
 ! A20   A(6,5,13)             109.5767         estimate D2E/DX2                !
 ! A21   A(12,5,13)            107.1292         estimate D2E/DX2                !
 ! A22   A(5,6,7)              111.77           estimate D2E/DX2                !
 ! A23   A(5,6,14)             109.7421         estimate D2E/DX2                !
 ! A24   A(5,6,15)             109.0867         estimate D2E/DX2                !
 ! A25   A(7,6,14)             109.6509         estimate D2E/DX2                !
 ! A26   A(7,6,15)             109.4357         estimate D2E/DX2                !
 ! A27   A(14,6,15)            107.0363         estimate D2E/DX2                !
 ! A28   A(2,7,6)              110.6526         estimate D2E/DX2                !
 ! A29   A(2,7,16)             109.1406         estimate D2E/DX2                !
 ! A30   A(2,7,17)             108.0474         estimate D2E/DX2                !
 ! A31   A(6,7,16)             109.8699         estimate D2E/DX2                !
 ! A32   A(6,7,17)             110.8998         estimate D2E/DX2                !
 ! A33   A(16,7,17)            108.1639         estimate D2E/DX2                !
 ! D1    D(1,2,3,4)            135.8704         estimate D2E/DX2                !
 ! D2    D(1,2,3,8)           -102.5437         estimate D2E/DX2                !
 ! D3    D(1,2,3,9)             14.8526         estimate D2E/DX2                !
 ! D4    D(7,2,3,4)            -49.7057         estimate D2E/DX2                !
 ! D5    D(7,2,3,8)             71.8802         estimate D2E/DX2                !
 ! D6    D(7,2,3,9)           -170.7235         estimate D2E/DX2                !
 ! D7    D(1,2,7,6)           -135.8704         estimate D2E/DX2                !
 ! D8    D(1,2,7,16)           -14.8526         estimate D2E/DX2                !
 ! D9    D(1,2,7,17)           102.5437         estimate D2E/DX2                !
 ! D10   D(3,2,7,6)             49.7057         estimate D2E/DX2                !
 ! D11   D(3,2,7,16)           170.7235         estimate D2E/DX2                !
 ! D12   D(3,2,7,17)           -71.8802         estimate D2E/DX2                !
 ! D13   D(2,3,4,5)             52.043          estimate D2E/DX2                !
 ! D14   D(2,3,4,10)           -68.9082         estimate D2E/DX2                !
 ! D15   D(2,3,4,11)           173.9691         estimate D2E/DX2                !
 ! D16   D(8,3,4,5)            -67.8465         estimate D2E/DX2                !
 ! D17   D(8,3,4,10)           171.2023         estimate D2E/DX2                !
 ! D18   D(8,3,4,11)            54.0796         estimate D2E/DX2                !
 ! D19   D(9,3,4,5)            172.6275         estimate D2E/DX2                !
 ! D20   D(9,3,4,10)            51.6763         estimate D2E/DX2                !
 ! D21   D(9,3,4,11)           -65.4463         estimate D2E/DX2                !
 ! D22   D(3,4,5,6)            -56.9575         estimate D2E/DX2                !
 ! D23   D(3,4,5,12)            64.5379         estimate D2E/DX2                !
 ! D24   D(3,4,5,13)          -178.0717         estimate D2E/DX2                !
 ! D25   D(10,4,5,6)            64.1963         estimate D2E/DX2                !
 ! D26   D(10,4,5,12)         -174.3082         estimate D2E/DX2                !
 ! D27   D(10,4,5,13)          -56.9179         estimate D2E/DX2                !
 ! D28   D(11,4,5,6)          -178.8312         estimate D2E/DX2                !
 ! D29   D(11,4,5,12)          -57.3358         estimate D2E/DX2                !
 ! D30   D(11,4,5,13)           60.0546         estimate D2E/DX2                !
 ! D31   D(4,5,6,7)             56.9575         estimate D2E/DX2                !
 ! D32   D(4,5,6,14)           178.8313         estimate D2E/DX2                !
 ! D33   D(4,5,6,15)           -64.1962         estimate D2E/DX2                !
 ! D34   D(12,5,6,7)           -64.5379         estimate D2E/DX2                !
 ! D35   D(12,5,6,14)           57.3359         estimate D2E/DX2                !
 ! D36   D(12,5,6,15)          174.3084         estimate D2E/DX2                !
 ! D37   D(13,5,6,7)           178.0717         estimate D2E/DX2                !
 ! D38   D(13,5,6,14)          -60.0545         estimate D2E/DX2                !
 ! D39   D(13,5,6,15)           56.918          estimate D2E/DX2                !
 ! D40   D(5,6,7,2)            -52.043          estimate D2E/DX2                !
 ! D41   D(5,6,7,16)          -172.6275         estimate D2E/DX2                !
 ! D42   D(5,6,7,17)            67.8466         estimate D2E/DX2                !
 ! D43   D(14,6,7,2)          -173.9693         estimate D2E/DX2                !
 ! D44   D(14,6,7,16)           65.4462         estimate D2E/DX2                !
 ! D45   D(14,6,7,17)          -54.0798         estimate D2E/DX2                !
 ! D46   D(15,6,7,2)            68.9081         estimate D2E/DX2                !
 ! D47   D(15,6,7,16)          -51.6764         estimate D2E/DX2                !
 ! D48   D(15,6,7,17)         -171.2023         estimate D2E/DX2                !
 --------------------------------------------------------------------------------
 Trust Radius=3.00D-01 FncErr=1.00D-07 GrdErr=1.00D-06
 Number of steps in this run=    102 maximum allowed number of steps=    102.
 GradGradGradGradGradGradGradGradGradGradGradGradGradGradGradGradGradGrad

 Leave Link  103 at Thu Mar 19 18:35:13 2026, MaxMem=   536870912 cpu:         0.0
 (Enter C:\G09W\l202.exe)
                          Input orientation:                          
 ---------------------------------------------------------------------
 Center     Atomic      Atomic             Coordinates (Angstroms)
 Number     Number       Type             X           Y           Z
 ---------------------------------------------------------------------
      1          8           0       -2.254252    1.523109   -0.037308
      2          6           0       -1.236071    0.866452    0.175439
      3          6           0       -1.300195   -0.598527    0.545374
      4          6           0       -0.259217   -1.394241   -0.230024
      5          6           0        1.134701   -0.785003   -0.095990
      6          6           0        1.140971    0.670007   -0.559723
      7          6           0        0.131251    1.511804    0.208315
      8          1           0       -1.132929   -0.683655    1.624543
      9          1           0       -2.301955   -0.981219    0.323985
     10          1           0       -0.537641   -1.423211   -1.291016
     11          1           0       -0.246271   -2.430109    0.126865
     12          1           0        1.466313   -0.843224    0.947804
     13          1           0        1.847509   -1.363994   -0.693861
     14          1           0        2.143871    1.093597   -0.435939
     15          1           0        0.906711    0.706150   -1.631114
     16          1           0        0.067158    2.511483   -0.233865
     17          1           0        0.430044    1.620583    1.256514
 ---------------------------------------------------------------------
                    Distance matrix (angstroms):
                    1          2          3          4          5
     1  O    0.000000
     2  C    1.230103   0.000000
     3  C    2.398141   1.512325   0.000000
     4  C    3.539525   2.495872   1.522510   0.000000
     5  C    4.100711   2.901988   2.524844   1.527136   0.000000
     6  C    3.539525   2.495873   2.964744   2.516018   1.527135
     7  C    2.398142   1.512326   2.572186   2.964743   2.524844
     8  H    2.981429   2.124470   1.095368   2.169729   2.848272
     9  H    2.530705   2.138238   1.094984   2.156453   3.467778
    10  H    3.633089   2.807285   2.152654   1.097298   2.152237
    11  H    4.436989   3.442293   2.154205   1.095701   2.159426
    12  H    4.518028   3.289745   2.806313   2.160637   1.096751
    13  H    5.058742   3.903721   3.468383   2.157395   1.095799
    14  H    4.436989   3.442294   3.960789   3.465050   2.159428
    15  H    3.633088   2.807284   3.362992   2.781022   2.152237
    16  H    2.530704   2.138238   3.485546   3.919339   3.467777
    17  H    2.981429   2.124471   2.902395   3.431332   2.848272
                    6          7          8          9         10
     6  C    0.000000
     7  C    1.522511   0.000000
     8  H    3.431332   2.902394   0.000000
     9  H    3.919340   3.485547   1.773871   0.000000
    10  H    2.781023   3.362993   3.066235   2.432363   0.000000
    11  H    3.465049   3.960787   2.465624   2.522692   1.763272
    12  H    2.160637   2.806313   2.690631   3.822046   3.060152
    13  H    2.157394   3.468383   3.836778   4.289590   2.459480
    14  H    1.095700   2.154205   4.259299   4.964646   3.775710
    15  H    1.097298   2.152653   4.085461   4.118879   2.595380
    16  H    2.156453   1.094984   3.886232   4.257095   4.118879
    17  H    2.169730   1.095368   2.808530   3.886232   4.085463
                   11         12         13         14         15
    11  H    0.000000
    12  H    2.474892   0.000000
    13  H    2.488796   1.763966   0.000000
    14  H    4.294884   2.474895   2.488796   0.000000
    15  H    3.775709   3.060152   2.459480   1.763271   0.000000
    16  H    4.964645   3.822046   4.289588   2.522691   2.432361
    17  H    4.259297   2.690632   3.836779   2.465627   3.066235
                   16         17
    16  H    0.000000
    17  H    1.773871   0.000000
 Stoichiometry    C6H10O
 Framework group  C1[X(C6H10O)]
 Deg. of freedom    45
 Full point group                 C1      NOp   1
 Largest Abelian subgroup         C1      NOp   1
 Largest concise Abelian subgroup C1      NOp   1
                         Standard orientation:                         
 ---------------------------------------------------------------------
 Center     Atomic      Atomic             Coordinates (Angstroms)
 Number     Number       Type             X           Y           Z
 ---------------------------------------------------------------------
      1          8           0        2.302619   -0.000001   -0.317162
      2          6           0        1.126154    0.000000    0.042119
      3          6           0        0.387016    1.286093    0.336680
      4          6           0       -1.005571    1.258009   -0.278097
      5          6           0       -1.774811    0.000000    0.119176
      6          6           0       -1.005572   -1.258009   -0.278097
      7          6           0        0.387015   -1.286093    0.336681
      8          1           0        0.331720    1.404265    1.424250
      9          1           0        0.956323    2.128548   -0.069706
     10          1           0       -0.922842    1.297691   -1.371553
     11          1           0       -1.564163    2.147442    0.034063
     12          1           0       -1.952550    0.000001    1.201429
     13          1           0       -2.755857    0.000000   -0.369008
     14          1           0       -1.564164   -2.147442    0.034061
     15          1           0       -0.922841   -1.297689   -1.371552
     16          1           0        0.956321   -2.128548   -0.069706
     17          1           0        0.331719   -1.404265    1.424251
 ---------------------------------------------------------------------
 Rotational constants (GHZ):      4.2358389      2.5112516      1.7494014
 Leave Link  202 at Thu Mar 19 18:35:13 2026, MaxMem=   536870912 cpu:         0.0
 (Enter C:\G09W\l301.exe)
 Standard basis: 6-31G(d) (6D, 7F)
 Ernie: Thresh=  0.10000D-02 Tol=  0.10000D-05 Strict=F.
 There are   125 symmetry adapted cartesian basis functions of A   symmetry.
 There are   125 symmetry adapted basis functions of A   symmetry.
   125 basis functions,   236 primitive gaussians,   125 cartesian basis functions
    27 alpha electrons       27 beta electrons
       nuclear repulsion energy       310.2131595229 Hartrees.
 IExCor=  402 DFT=T Ex+Corr=B3LYP ExCW=0 ScaHFX=  0.200000
 ScaDFX=  0.800000  0.720000  1.000000  0.810000 ScalE2=  1.000000  1.000000
 IRadAn=      0 IRanWt=     -1 IRanGd=            0 ICorTp=0 IEmpDi=  4
 NAtoms=   17 NActive=   17 NUniq=   17 SFac= 1.00D+00 NAtFMM=   60 NAOKFM=F Big=F
 Integral buffers will be    131072 words long.
 Raffenetti 2 integral format.
 Two-electron integral symmetry is turned on.
 Leave Link  301 at Thu Mar 19 18:35:14 2026, MaxMem=   536870912 cpu:         0.0
 (Enter C:\G09W\l302.exe)
 NPDir=0 NMtPBC=     1 NCelOv=     1 NCel=       1 NClECP=     1 NCelD=      1
         NCelK=      1 NCelE2=     1 NClLst=     1 CellRange=     0.0.
 One-electron integrals computed using PRISM.
 NBasis=   125 RedAO= T EigKep=  3.32D-03  NBF=   125
 NBsUse=   125 1.00D-06 EigRej= -1.00D+00 NBFU=   125
 Precomputing XC quadrature grid using
 IXCGrd= 4 IRadAn=           0 IRanWt=          -1 IRanGd=           0 AccXCQ= 0.00D+00.
 Generated NRdTot=       0 NPtTot=           0 NUsed=           0 NTot=          32
 NSgBfM=   125   125   125   125   125 MxSgAt=    17 MxSgA2=    17.
 Leave Link  302 at Thu Mar 19 18:35:14 2026, MaxMem=   536870912 cpu:         0.0
 (Enter C:\G09W\l303.exe)
 DipDrv:  MaxL=1.
 Leave Link  303 at Thu Mar 19 18:35:15 2026, MaxMem=   536870912 cpu:         1.0
 (Enter C:\G09W\l401.exe)
 ExpMin= 1.61D-01 ExpMax= 5.48D+03 ExpMxC= 8.25D+02 IAcc=1 IRadAn=         1 AccDes= 0.00D+00
 Harris functional with IExCor=  402 and IRadAn=       1 diagonalized for initial guess.
 HarFok:  IExCor=  402 AccDes= 0.00D+00 IRadAn=         1 IDoV= 1 UseB2=F ITyADJ=14
 ICtDFT=  3500011 ScaDFX=  1.000000  1.000000  1.000000  1.000000
 FoFCou: FMM=F IPFlag=           0 FMFlag=      100000 FMFlg1=           0
         NFxFlg=           0 DoJE=T BraDBF=F KetDBF=T FulRan=T
         wScrn=  0.000000 ICntrl=     500 IOpCl=  0 I1Cent=   200000004 NGrid=           0
         NMat0=    1 NMatS0=      1 NMatT0=    0 NMatD0=    1 NMtDS0=    0 NMtDT0=    0
 Petite list used in FoFCou.
 Harris En= -309.937663860890    
 JPrj=0 DoOrth=F DoCkMO=F.
 Leave Link  401 at Thu Mar 19 18:35:15 2026, MaxMem=   536870912 cpu:         0.0
 (Enter C:\G09W\l502.exe)
 Closed shell SCF:
 Using DIIS extrapolation, IDIIS=  1040.
 Integral symmetry usage will be decided dynamically.
 Keep R1 ints in memory in canonical form, NReq=32079007.
 IVT=       67132 IEndB=       67132 NGot=   536870912 MDV=   505792031
 LenX=   505792031 LenY=   505775965
 Requested convergence on RMS density matrix=1.00D-08 within 128 cycles.
 Requested convergence on MAX density matrix=1.00D-06.
 Requested convergence on             energy=1.00D-06.
 No special actions if energy rises.
 FoFCou: FMM=F IPFlag=           0 FMFlag=           0 FMFlg1=           0
         NFxFlg=           0 DoJE=F BraDBF=F KetDBF=F FulRan=T
         wScrn=  0.000000 ICntrl=     600 IOpCl=  0 I1Cent=           0 NGrid=           0
         NMat0=    1 NMatS0=   7875 NMatT0=    0 NMatD0=    1 NMtDS0=    0 NMtDT0=    0
 Symmetry not used in FoFCou.
 Integral accuracy reduced to 1.0D-05 until final iterations.

 Cycle   1  Pass 0  IDiag  1:
 E= -309.655121757240    
 DIIS: error= 3.70D-02 at cycle   1 NSaved=   1.
 NSaved= 1 IEnMin= 1 EnMin= -309.655121757240     IErMin= 1 ErrMin= 3.70D-02
 ErrMax= 3.70D-02  0.00D+00 EMaxC= 1.00D-01 BMatC= 2.33D-01 BMatP= 2.33D-01
 IDIUse=3 WtCom= 6.30D-01 WtEn= 3.70D-01
 Coeff-Com:  0.100D+01
 Coeff-En:   0.100D+01
 Coeff:      0.100D+01
 Gap=     0.139 Goal=   None    Shift=    0.000
 GapD=    0.139 DampG=1.000 DampE=0.500 DampFc=0.5000 IDamp=-1.
 Damping current iteration by 5.00D-01
 RMSDP=9.07D-03 MaxDP=1.73D-01              OVMax= 2.28D-01

 Cycle   2  Pass 0  IDiag  1:
 E= -309.747529542428     Delta-E=       -0.092407785188 Rises=F Damp=T
 DIIS: error= 9.83D-03 at cycle   2 NSaved=   2.
 NSaved= 2 IEnMin= 2 EnMin= -309.747529542428     IErMin= 2 ErrMin= 9.83D-03
 ErrMax= 9.83D-03  0.00D+00 EMaxC= 1.00D-01 BMatC= 2.12D-02 BMatP= 2.33D-01
 IDIUse=3 WtCom= 9.02D-01 WtEn= 9.83D-02
 Coeff-Com:  0.146D+00 0.854D+00
 Coeff-En:   0.206D+00 0.794D+00
 Coeff:      0.152D+00 0.848D+00
 Gap=     0.222 Goal=   None    Shift=    0.000
 RMSDP=2.01D-03 MaxDP=4.45D-02 DE=-9.24D-02 OVMax= 1.82D-01

 Cycle   3  Pass 0  IDiag  1:
 E= -309.873084594770     Delta-E=       -0.125555052342 Rises=F Damp=F
 DIIS: error= 1.43D-02 at cycle   3 NSaved=   3.
 NSaved= 3 IEnMin= 3 EnMin= -309.873084594770     IErMin= 2 ErrMin= 9.83D-03
 ErrMax= 1.43D-02  0.00D+00 EMaxC= 1.00D-01 BMatC= 1.93D-02 BMatP= 2.12D-02
 IDIUse=3 WtCom= 8.57D-01 WtEn= 1.43D-01
 Coeff-Com:  0.402D-01 0.485D+00 0.475D+00
 Coeff-En:   0.000D+00 0.000D+00 0.100D+01
 Coeff:      0.345D-01 0.416D+00 0.550D+00
 Gap=     0.212 Goal=   None    Shift=    0.000
 RMSDP=1.49D-03 MaxDP=4.83D-02 DE=-1.26D-01 OVMax= 7.25D-02

 Cycle   4  Pass 0  IDiag  1:
 E= -309.881909732413     Delta-E=       -0.008825137643 Rises=F Damp=F
 DIIS: error= 9.84D-03 at cycle   4 NSaved=   4.
 NSaved= 4 IEnMin= 4 EnMin= -309.881909732413     IErMin= 2 ErrMin= 9.83D-03
 ErrMax= 9.84D-03  0.00D+00 EMaxC= 1.00D-01 BMatC= 8.81D-03 BMatP= 1.93D-02
 IDIUse=3 WtCom= 9.02D-01 WtEn= 9.84D-02
 Coeff-Com:  0.777D-02 0.929D-01 0.395D+00 0.504D+00
 Coeff-En:   0.000D+00 0.000D+00 0.350D+00 0.650D+00
 Coeff:      0.700D-02 0.837D-01 0.391D+00 0.518D+00
 Gap=     0.218 Goal=   None    Shift=    0.000
 RMSDP=7.14D-04 MaxDP=1.97D-02 DE=-8.83D-03 OVMax= 2.37D-02

 Cycle   5  Pass 0  IDiag  1:
 E= -309.888948331222     Delta-E=       -0.007038598810 Rises=F Damp=F
 DIIS: error= 6.27D-04 at cycle   5 NSaved=   5.
 NSaved= 5 IEnMin= 5 EnMin= -309.888948331222     IErMin= 5 ErrMin= 6.27D-04
 ErrMax= 6.27D-04  0.00D+00 EMaxC= 1.00D-01 BMatC= 8.59D-05 BMatP= 8.81D-03
 IDIUse=3 WtCom= 9.94D-01 WtEn= 6.27D-03
 Coeff-Com:  0.113D-02 0.370D-03 0.110D+00 0.195D+00 0.694D+00
 Coeff-En:   0.000D+00 0.000D+00 0.000D+00 0.000D+00 0.100D+01
 Coeff:      0.113D-02 0.367D-03 0.109D+00 0.193D+00 0.696D+00
 Gap=     0.217 Goal=   None    Shift=    0.000
 RMSDP=1.00D-04 MaxDP=1.35D-03 DE=-7.04D-03 OVMax= 2.68D-03

 Cycle   6  Pass 0  IDiag  1:
 E= -309.889022929816     Delta-E=       -0.000074598593 Rises=F Damp=F
 DIIS: error= 1.53D-04 at cycle   6 NSaved=   6.
 NSaved= 6 IEnMin= 6 EnMin= -309.889022929816     IErMin= 6 ErrMin= 1.53D-04
 ErrMax= 1.53D-04  0.00D+00 EMaxC= 1.00D-01 BMatC= 5.76D-06 BMatP= 8.59D-05
 IDIUse=3 WtCom= 9.98D-01 WtEn= 1.53D-03
 Coeff-Com:  0.474D-03-0.265D-02 0.413D-01 0.771D-01 0.339D+00 0.545D+00
 Coeff-En:   0.000D+00 0.000D+00 0.000D+00 0.000D+00 0.000D+00 0.100D+01
 Coeff:      0.473D-03-0.264D-02 0.413D-01 0.769D-01 0.339D+00 0.545D+00
 Gap=     0.217 Goal=   None    Shift=    0.000
 RMSDP=2.22D-05 MaxDP=3.63D-04 DE=-7.46D-05 OVMax= 5.68D-04

 Cycle   7  Pass 0  IDiag  1:
 E= -309.889028329266     Delta-E=       -0.000005399450 Rises=F Damp=F
 DIIS: error= 2.55D-05 at cycle   7 NSaved=   7.
 NSaved= 7 IEnMin= 7 EnMin= -309.889028329266     IErMin= 7 ErrMin= 2.55D-05
 ErrMax= 2.55D-05  0.00D+00 EMaxC= 1.00D-01 BMatC= 1.20D-07 BMatP= 5.76D-06
 IDIUse=1 WtCom= 1.00D+00 WtEn= 0.00D+00
 Coeff-Com:  0.155D-03-0.823D-03 0.365D-02 0.589D-02 0.419D-01 0.139D+00
 Coeff-Com:  0.810D+00
 Coeff:      0.155D-03-0.823D-03 0.365D-02 0.589D-02 0.419D-01 0.139D+00
 Coeff:      0.810D+00
 Gap=     0.217 Goal=   None    Shift=    0.000
 RMSDP=3.20D-06 MaxDP=5.91D-05 DE=-5.40D-06 OVMax= 5.94D-05

 Initial convergence to 1.0D-05 achieved.  Increase integral accuracy.
 Cycle   8  Pass 1  IDiag  1:
 E= -309.888926218659     Delta-E=        0.000102110607 Rises=F Damp=F
 DIIS: error= 4.92D-05 at cycle   1 NSaved=   1.
 NSaved= 1 IEnMin= 1 EnMin= -309.888926218659     IErMin= 1 ErrMin= 4.92D-05
 ErrMax= 4.92D-05  0.00D+00 EMaxC= 1.00D-01 BMatC= 2.12D-07 BMatP= 2.12D-07
 IDIUse=1 WtCom= 1.00D+00 WtEn= 0.00D+00
 Coeff-Com:  0.100D+01
 Coeff:      0.100D+01
 Gap=     0.217 Goal=   None    Shift=    0.000
 RMSDP=3.20D-06 MaxDP=5.91D-05 DE= 1.02D-04 OVMax= 2.18D-04

 Cycle   9  Pass 1  IDiag  1:
 E= -309.888926492773     Delta-E=       -0.000000274114 Rises=F Damp=F
 DIIS: error= 9.18D-06 at cycle   2 NSaved=   2.
 NSaved= 2 IEnMin= 2 EnMin= -309.888926492773     IErMin= 2 ErrMin= 9.18D-06
 ErrMax= 9.18D-06  0.00D+00 EMaxC= 1.00D-01 BMatC= 1.20D-08 BMatP= 2.12D-07
 IDIUse=1 WtCom= 1.00D+00 WtEn= 0.00D+00
 Coeff-Com:  0.585D-01 0.942D+00
 Coeff:      0.585D-01 0.942D+00
 Gap=     0.217 Goal=   None    Shift=    0.000
 RMSDP=1.96D-06 MaxDP=4.42D-05 DE=-2.74D-07 OVMax= 5.51D-05

 Cycle  10  Pass 1  IDiag  1:
 E= -309.888926484006     Delta-E=        0.000000008767 Rises=F Damp=F
 DIIS: error= 1.69D-05 at cycle   3 NSaved=   3.
 NSaved= 3 IEnMin= 2 EnMin= -309.888926492773     IErMin= 2 ErrMin= 9.18D-06
 ErrMax= 1.69D-05  0.00D+00 EMaxC= 1.00D-01 BMatC= 2.53D-08 BMatP= 1.20D-08
 IDIUse=1 WtCom= 1.00D+00 WtEn= 0.00D+00
 Coeff-Com: -0.131D-01 0.605D+00 0.408D+00
 Coeff:     -0.131D-01 0.605D+00 0.408D+00
 Gap=     0.217 Goal=   None    Shift=    0.000
 RMSDP=1.11D-06 MaxDP=3.83D-05 DE= 8.77D-09 OVMax= 4.69D-05

 Cycle  11  Pass 1  IDiag  1:
 E= -309.888926502878     Delta-E=       -0.000000018872 Rises=F Damp=F
 DIIS: error= 4.21D-06 at cycle   4 NSaved=   4.
 NSaved= 4 IEnMin= 4 EnMin= -309.888926502878     IErMin= 4 ErrMin= 4.21D-06
 ErrMax= 4.21D-06  0.00D+00 EMaxC= 1.00D-01 BMatC= 1.86D-09 BMatP= 1.20D-08
 IDIUse=1 WtCom= 1.00D+00 WtEn= 0.00D+00
 Coeff-Com: -0.128D-01 0.283D+00 0.255D+00 0.475D+00
 Coeff:     -0.128D-01 0.283D+00 0.255D+00 0.475D+00
 Gap=     0.217 Goal=   None    Shift=    0.000
 RMSDP=3.93D-07 MaxDP=1.07D-05 DE=-1.89D-08 OVMax= 1.32D-05

 Cycle  12  Pass 1  IDiag  1:
 E= -309.888926504356     Delta-E=       -0.000000001478 Rises=F Damp=F
 DIIS: error= 6.20D-07 at cycle   5 NSaved=   5.
 NSaved= 5 IEnMin= 5 EnMin= -309.888926504356     IErMin= 5 ErrMin= 6.20D-07
 ErrMax= 6.20D-07  0.00D+00 EMaxC= 1.00D-01 BMatC= 5.83D-11 BMatP= 1.86D-09
 IDIUse=1 WtCom= 1.00D+00 WtEn= 0.00D+00
 Coeff-Com: -0.458D-02 0.796D-01 0.793D-01 0.214D+00 0.632D+00
 Coeff:     -0.458D-02 0.796D-01 0.793D-01 0.214D+00 0.632D+00
 Gap=     0.217 Goal=   None    Shift=    0.000
 RMSDP=7.31D-08 MaxDP=1.59D-06 DE=-1.48D-09 OVMax= 1.73D-06

 Cycle  13  Pass 1  IDiag  1:
 E= -309.888926504409     Delta-E=       -0.000000000053 Rises=F Damp=F
 DIIS: error= 9.35D-08 at cycle   6 NSaved=   6.
 NSaved= 6 IEnMin= 6 EnMin= -309.888926504409     IErMin= 6 ErrMin= 9.35D-08
 ErrMax= 9.35D-08  0.00D+00 EMaxC= 1.00D-01 BMatC= 1.52D-12 BMatP= 5.83D-11
 IDIUse=1 WtCom= 1.00D+00 WtEn= 0.00D+00
 Coeff-Com: -0.580D-03 0.541D-02 0.518D-02 0.299D-01 0.175D+00 0.785D+00
 Coeff:     -0.580D-03 0.541D-02 0.518D-02 0.299D-01 0.175D+00 0.785D+00
 Gap=     0.217 Goal=   None    Shift=    0.000
 RMSDP=1.25D-08 MaxDP=2.85D-07 DE=-5.32D-11 OVMax= 3.76D-07

 Cycle  14  Pass 1  IDiag  1:
 E= -309.888926504414     Delta-E=       -0.000000000005 Rises=F Damp=F
 DIIS: error= 3.02D-08 at cycle   7 NSaved=   7.
 NSaved= 7 IEnMin= 7 EnMin= -309.888926504414     IErMin= 7 ErrMin= 3.02D-08
 ErrMax= 3.02D-08  0.00D+00 EMaxC= 1.00D-01 BMatC= 2.25D-13 BMatP= 1.52D-12
 IDIUse=1 WtCom= 1.00D+00 WtEn= 0.00D+00
 Coeff-Com: -0.768D-04-0.103D-02-0.130D-02 0.494D-02 0.548D-01 0.375D+00
 Coeff-Com:  0.567D+00
 Coeff:     -0.768D-04-0.103D-02-0.130D-02 0.494D-02 0.548D-01 0.375D+00
 Coeff:      0.567D+00
 Gap=     0.217 Goal=   None    Shift=    0.000
 RMSDP=4.51D-09 MaxDP=7.73D-08 DE=-4.66D-12 OVMax= 1.04D-07

 SCF Done:  E(RB3LYP) =  -309.888926504     A.U. after   14 cycles
            NFock= 14  Conv=0.45D-08     -V/T= 2.0092
 KE= 3.070591817313D+02 PE=-1.340327257238D+03 EE= 4.131659894798D+02
 Leave Link  502 at Thu Mar 19 18:35:33 2026, MaxMem=   536870912 cpu:        18.0
 (Enter C:\G09W\l601.exe)
 Copying SCF densities to generalized density rwf, IOpCl= 0 IROHF=0.

 **********************************************************************

            Population analysis using the SCF density.

 **********************************************************************

 Orbital symmetries:
       Occupied  (A) (A) (A) (A) (A) (A) (A) (A) (A) (A) (A) (A)
                 (A) (A) (A) (A) (A) (A) (A) (A) (A) (A) (A) (A)
                 (A) (A) (A)
       Virtual   (A) (A) (A) (A) (A) (A) (A) (A) (A) (A) (A) (A)
                 (A) (A) (A) (A) (A) (A) (A) (A) (A) (A) (A) (A)
                 (A) (A) (A) (A) (A) (A) (A) (A) (A) (A) (A) (A)
                 (A) (A) (A) (A) (A) (A) (A) (A) (A) (A) (A) (A)
                 (A) (A) (A) (A) (A) (A) (A) (A) (A) (A) (A) (A)
                 (A) (A) (A) (A) (A) (A) (A) (A) (A) (A) (A) (A)
                 (A) (A) (A) (A) (A) (A) (A) (A) (A) (A) (A) (A)
                 (A) (A) (A) (A) (A) (A) (A) (A) (A) (A) (A) (A)
                 (A) (A)
 The electronic state is 1-A.
 Alpha  occ. eigenvalues --  -19.12967 -10.26701 -10.19121 -10.19121 -10.18915
 Alpha  occ. eigenvalues --  -10.18913 -10.18829  -1.02240  -0.83679  -0.76035
 Alpha  occ. eigenvalues --   -0.72669  -0.62729  -0.59249  -0.53350  -0.47649
 Alpha  occ. eigenvalues --   -0.46125  -0.44714  -0.43875  -0.41827  -0.39761
 Alpha  occ. eigenvalues --   -0.39183  -0.36190  -0.35447  -0.33074  -0.32549
 Alpha  occ. eigenvalues --   -0.32212  -0.23344
 Alpha virt. eigenvalues --   -0.01601   0.08583   0.10846   0.12440   0.13988
 Alpha virt. eigenvalues --    0.15833   0.16108   0.16296   0.16651   0.17741
 Alpha virt. eigenvalues --    0.18450   0.21136   0.23336   0.23759   0.26415
 Alpha virt. eigenvalues --    0.27254   0.32117   0.35533   0.51461   0.51804
 Alpha virt. eigenvalues --    0.53331   0.54172   0.55432   0.58709   0.59456
 Alpha virt. eigenvalues --    0.63296   0.64903   0.66464   0.68543   0.72016
 Alpha virt. eigenvalues --    0.73915   0.74986   0.76657   0.81196   0.82573
 Alpha virt. eigenvalues --    0.84990   0.85443   0.87452   0.88019   0.89628
 Alpha virt. eigenvalues --    0.92485   0.93110   0.93840   0.94627   0.96341
 Alpha virt. eigenvalues --    0.98222   1.06000   1.10004   1.10699   1.17065
 Alpha virt. eigenvalues --    1.20413   1.35417   1.37964   1.39444   1.48611
 Alpha virt. eigenvalues --    1.52246   1.55746   1.65302   1.69761   1.70145
 Alpha virt. eigenvalues --    1.75724   1.79506   1.82944   1.83908   1.84529
 Alpha virt. eigenvalues --    1.89669   1.93579   1.94263   1.96223   1.99694
 Alpha virt. eigenvalues --    2.02693   2.07047   2.08057   2.14519   2.16018
 Alpha virt. eigenvalues --    2.25506   2.30782   2.31777   2.35677   2.38313
 Alpha virt. eigenvalues --    2.40430   2.44485   2.46959   2.58753   2.62233
 Alpha virt. eigenvalues --    2.62386   2.70355   2.73056   2.76292   2.97492
 Alpha virt. eigenvalues --    3.01324   3.97661   4.12787   4.25886   4.25905
 Alpha virt. eigenvalues --    4.51820   4.54926   4.59112
          Condensed to atoms (all electrons):
               1          2          3          4          5          6
     1  O    8.023083   0.576458  -0.079216   0.002001   0.000105   0.002001
     2  C    0.576458   4.486353   0.329847  -0.023380  -0.016208  -0.023380
     3  C   -0.079216   0.329847   5.308246   0.326047  -0.046056  -0.003138
     4  C    0.002001  -0.023380   0.326047   5.033721   0.381629  -0.049680
     5  C    0.000105  -0.016208  -0.046056   0.381629   5.004811   0.381629
     6  C    0.002001  -0.023380  -0.003138  -0.049680   0.381629   5.033721
     7  C   -0.079216   0.329847  -0.139301  -0.003138  -0.046056   0.326047
     8  H    0.000589  -0.029854   0.353807  -0.035217  -0.003078  -0.001460
     9  H    0.004306  -0.023333   0.347413  -0.028972   0.004522  -0.000192
    10  H    0.000327  -0.003374  -0.042954   0.378654  -0.040938  -0.005640
    11  H   -0.000079   0.003363  -0.029099   0.367206  -0.031684   0.005336
    12  H   -0.000012  -0.002092  -0.002666  -0.043210   0.374868  -0.043209
    13  H    0.000002   0.000366   0.004852  -0.032379   0.369585  -0.032380
    14  H   -0.000079   0.003363  -0.000293   0.005336  -0.031684   0.367206
    15  H    0.000327  -0.003374   0.000488  -0.005640  -0.040938   0.378654
    16  H    0.004306  -0.023333   0.006408  -0.000192   0.004522  -0.028972
    17  H    0.000589  -0.029854   0.003710  -0.001460  -0.003078  -0.035217
               7          8          9         10         11         12
     1  O   -0.079216   0.000589   0.004306   0.000327  -0.000079  -0.000012
     2  C    0.329847  -0.029854  -0.023333  -0.003374   0.003363  -0.002092
     3  C   -0.139301   0.353807   0.347413  -0.042954  -0.029099  -0.002666
     4  C   -0.003138  -0.035217  -0.028972   0.378654   0.367206  -0.043210
     5  C   -0.046056  -0.003078   0.004522  -0.040938  -0.031684   0.374868
     6  C    0.326047  -0.001460  -0.000192  -0.005640   0.005336  -0.043209
     7  C    5.308246   0.003710   0.006408   0.000488  -0.000293  -0.002666
     8  H    0.003710   0.573987  -0.025459   0.005755  -0.006620   0.004506
     9  H    0.006408  -0.025459   0.557691  -0.004007  -0.002482  -0.000025
    10  H    0.000488   0.005755  -0.004007   0.596251  -0.035627   0.005985
    11  H   -0.000293  -0.006620  -0.002482  -0.035627   0.596111  -0.004173
    12  H   -0.002666   0.004506  -0.000025   0.005985  -0.004173   0.609139
    13  H    0.004852  -0.000040  -0.000168  -0.004286  -0.002714  -0.035014
    14  H   -0.029099  -0.000007   0.000018  -0.000001  -0.000200  -0.004173
    15  H   -0.042954   0.000103  -0.000042   0.005136  -0.000001   0.005985
    16  H    0.347413  -0.000110  -0.000169  -0.000042   0.000018  -0.000025
    17  H    0.353806   0.001101  -0.000110   0.000103  -0.000007   0.004506
              13         14         15         16         17
     1  O    0.000002  -0.000079   0.000327   0.004306   0.000589
     2  C    0.000366   0.003363  -0.003374  -0.023333  -0.029854
     3  C    0.004852  -0.000293   0.000488   0.006408   0.003710
     4  C   -0.032379   0.005336  -0.005640  -0.000192  -0.001460
     5  C    0.369585  -0.031684  -0.040938   0.004522  -0.003078
     6  C   -0.032380   0.367206   0.378654  -0.028972  -0.035217
     7  C    0.004852  -0.029099  -0.042954   0.347413   0.353806
     8  H   -0.000040  -0.000007   0.000103  -0.000110   0.001101
     9  H   -0.000168   0.000018  -0.000042  -0.000169  -0.000110
    10  H   -0.004286  -0.000001   0.005136  -0.000042   0.000103
    11  H   -0.002714  -0.000200  -0.000001   0.000018  -0.000007
    12  H   -0.035014  -0.004173   0.005985  -0.000025   0.004506
    13  H    0.595116  -0.002714  -0.004286  -0.000168  -0.000040
    14  H   -0.002714   0.596111  -0.035628  -0.002482  -0.006620
    15  H   -0.004286  -0.035628   0.596251  -0.004007   0.005755
    16  H   -0.000168  -0.002482  -0.004007   0.557691  -0.025459
    17  H   -0.000040  -0.006620   0.005755  -0.025459   0.573987
 Mulliken charges:
               1
     1  O   -0.455492
     2  C    0.448583
     3  C   -0.338094
     4  C   -0.271325
     5  C   -0.261951
     6  C   -0.271325
     7  C   -0.338095
     8  H    0.158289
     9  H    0.164601
    10  H    0.144171
    11  H    0.140943
    12  H    0.132274
    13  H    0.139418
    14  H    0.140943
    15  H    0.144171
    16  H    0.164601
    17  H    0.158288
 Sum of Mulliken charges =   0.00000
 Mulliken charges with hydrogens summed into heavy atoms:
               1
     1  O   -0.455492
     2  C    0.448583
     3  C   -0.015205
     4  C    0.013789
     5  C    0.009740
     6  C    0.013789
     7  C   -0.015205
 Electronic spatial extent (au):  <R**2>=            742.5019
 Charge=              0.0000 electrons
 Dipole moment (field-independent basis, Debye):
    X=             -2.9818    Y=              0.0000    Z=              0.8514  Tot=              3.1010
 Quadrupole moment (field-independent basis, Debye-Ang):
   XX=            -51.4887   YY=            -41.2489   ZZ=            -41.6379
   XY=              0.0000   XZ=              1.7994   YZ=              0.0000
 Traceless Quadrupole moment (field-independent basis, Debye-Ang):
   XX=             -6.6968   YY=              3.5429   ZZ=              3.1539
   XY=              0.0000   XZ=              1.7994   YZ=              0.0000
 Octapole moment (field-independent basis, Debye-Ang**2):
  XXX=            -15.2190  YYY=              0.0000  ZZZ=             -0.0025  XYY=              3.4699
  XXY=              0.0000  XXZ=              3.2123  XZZ=              2.7314  YZZ=              0.0000
  YYZ=              0.0780  XYZ=              0.0000
 Hexadecapole moment (field-independent basis, Debye-Ang**3):
 XXXX=           -562.9658 YYYY=           -346.3438 ZZZZ=            -94.0682 XXXY=              0.0000
 XXXZ=              8.7159 YYYX=              0.0000 YYYZ=              0.0000 ZZZX=             -1.8018
 ZZZY=              0.0000 XXYY=           -142.1410 XXZZ=           -101.6240 YYZZ=            -75.0111
 XXYZ=              0.0000 YYXZ=             -2.7250 ZZXY=              0.0000
 N-N= 3.102131595229D+02 E-N=-1.340327251580D+03  KE= 3.070591817313D+02
 No NMR shielding tensors so no spin-rotation constants.
 Leave Link  601 at Thu Mar 19 18:35:34 2026, MaxMem=   536870912 cpu:         0.0
 (Enter C:\G09W\l701.exe)
 Compute integral first derivatives.
 ... and contract with generalized density number  0.
 Leave Link  701 at Thu Mar 19 18:35:34 2026, MaxMem=   536870912 cpu:         0.0
 (Enter C:\G09W\l702.exe)
 L702 exits ... SP integral derivatives will be done elsewhere.
 Leave Link  702 at Thu Mar 19 18:35:35 2026, MaxMem=   536870912 cpu:         0.0
 (Enter C:\G09W\l703.exe)
 Compute integral first derivatives, UseDBF=F ICtDFT=           0.
 Integral derivatives from FoFJK, PRISM(SPDF).
 Calling FoFJK, ICntrl=      2127 FMM=F ISym2X=0 I1Cent= 0 IOpClX= 0 NMat=1 NMatS=1 NMatT=0.
 FoFJK:  IHMeth= 1 ICntrl=    2127 DoSepK=F KAlg= 0 I1Cent=   0 FoldK=F
 IRaf=         0 NMat=   1 IRICut=       1 DoRegI=T DoRafI=F ISym2E= 0.
 FoFCou: FMM=F IPFlag=           0 FMFlag=      100000 FMFlg1=         800
         NFxFlg=           0 DoJE=F BraDBF=F KetDBF=F FulRan=T
         wScrn=  0.000000 ICntrl=    2127 IOpCl=  0 I1Cent=           0 NGrid=           0
         NMat0=    1 NMatS0=      1 NMatT0=    0 NMatD0=    1 NMtDS0=    0 NMtDT0=    0
 Symmetry not used in FoFCou.
 Leave Link  703 at Thu Mar 19 18:35:38 2026, MaxMem=   536870912 cpu:         3.0
 (Enter C:\G09W\l716.exe)
 Dipole        =-1.17314054D+00 1.31149423D-06 3.34966618D-01
 ***** Axes restored to original set *****
 -------------------------------------------------------------------
 Center     Atomic                   Forces (Hartrees/Bohr)
 Number     Number              X              Y              Z
 -------------------------------------------------------------------
      1        8           0.014375831   -0.010000980   -0.001563585
      2        6          -0.027206074    0.020053760    0.010013766
      3        6          -0.006551303   -0.001542438   -0.007920566
      4        6           0.007382603   -0.008970387    0.001417365
      5        6           0.002356007   -0.002160938   -0.003523652
      6        6           0.011207406   -0.003330345    0.000516711
      7        6          -0.002240202    0.004813289   -0.008935538
      8        1           0.001695115   -0.000592409    0.002818294
      9        1          -0.001407251    0.003070012    0.003094081
     10        1          -0.000846864   -0.000457918   -0.000736531
     11        1          -0.000893305   -0.001732726   -0.001380680
     12        1           0.000894850   -0.000310694    0.001854676
     13        1           0.001494298   -0.000880949    0.000831186
     14        1           0.001041066    0.001118731   -0.001835949
     15        1          -0.000011568    0.000773414   -0.000933398
     16        1          -0.002887742    0.000887418    0.003442715
     17        1           0.001597132   -0.000736840    0.002841105
 -------------------------------------------------------------------
 Cartesian Forces:  Max     0.027206074 RMS     0.006494419
 Leave Link  716 at Thu Mar 19 18:35:38 2026, MaxMem=   536870912 cpu:         0.0
 (Enter C:\G09W\l103.exe)

 GradGradGradGradGradGradGradGradGradGradGradGradGradGradGradGradGradGrad
 Berny optimization.
 FormGI is forming the generalized inverse of G from B-inverse, IUseBI=4.
 Internal  Forces:  Max     0.016968214 RMS     0.003249209
 Search for a local minimum.
 Step number   1 out of a maximum of  102
 All quantities printed in internal units (Hartrees-Bohrs-Radians)
 RMS Force = .32492D-02 SwitMx=.10000D-02 MixMth= 1
 Mixed Optimization -- RFO/linear search
 Second derivative matrix not updated -- first step.
 ITU=  0
     Eigenvalues ---    0.00614   0.00647   0.00656   0.00949   0.02314
     Eigenvalues ---    0.02721   0.04070   0.04299   0.04477   0.04933
     Eigenvalues ---    0.05024   0.05586   0.05900   0.06073   0.06941
     Eigenvalues ---    0.08061   0.08212   0.08214   0.08468   0.09119
     Eigenvalues ---    0.09142   0.09524   0.12089   0.12415   0.16311
     Eigenvalues ---    0.16682   0.22567   0.24831   0.28538   0.28787
     Eigenvalues ---    0.28861   0.30126   0.30657   0.30749   0.33983
     Eigenvalues ---    0.33983   0.34044   0.34151   0.34162   0.34162
     Eigenvalues ---    0.34200   0.34200   0.34243   0.34243   0.91044
 RFO step:  Lambda=-5.51592958D-03 EMin= 6.13603397D-03
 Linear search not attempted -- first point.
 Iteration  1 RMS(Cart)=  0.02370393 RMS(Int)=  0.00139443
 Iteration  2 RMS(Cart)=  0.00107379 RMS(Int)=  0.00105702
 Iteration  3 RMS(Cart)=  0.00000042 RMS(Int)=  0.00105702
 ITry= 1 IFail=0 DXMaxC= 1.13D-01 DCOld= 1.00D+10 DXMaxT= 3.00D-01 DXLimC= 3.00D+00 Rises=F
 Variable       Old X    -DE/DX   Delta X   Delta X   Delta X     New X
                                 (Linear)    (Quad)   (Total)
    R1        2.32456  -0.01697   0.00000  -0.01853  -0.01853   2.30603
    R2        2.85788   0.00606   0.00000   0.02138   0.02188   2.87976
    R3        2.85788   0.00606   0.00000   0.02138   0.02188   2.87976
    R4        2.87713   0.01286   0.00000   0.04187   0.04186   2.91899
    R5        2.06994   0.00308   0.00000   0.00887   0.00887   2.07882
    R6        2.06922  -0.00041   0.00000  -0.00118  -0.00118   2.06804
    R7        2.88587   0.00594   0.00000   0.01738   0.01689   2.90276
    R8        2.07359   0.00094   0.00000   0.00272   0.00272   2.07632
    R9        2.07057   0.00118   0.00000   0.00339   0.00339   2.07397
   R10        2.88587   0.00594   0.00000   0.01738   0.01689   2.90276
   R11        2.07256   0.00205   0.00000   0.00593   0.00593   2.07848
   R12        2.07076   0.00099   0.00000   0.00284   0.00284   2.07360
   R13        2.87713   0.01286   0.00000   0.04187   0.04186   2.91899
   R14        2.07057   0.00118   0.00000   0.00339   0.00339   2.07397
   R15        2.07359   0.00094   0.00000   0.00272   0.00272   2.07632
   R16        2.06922  -0.00041   0.00000  -0.00118  -0.00118   2.06804
   R17        2.06995   0.00308   0.00000   0.00887   0.00887   2.07882
    A1        2.12271   0.00239   0.00000   0.01057   0.00420   2.12691
    A2        2.12271   0.00239   0.00000   0.01057   0.00420   2.12691
    A3        2.03352  -0.00452   0.00000  -0.00426  -0.00833   2.02519
    A4        1.93125   0.00466   0.00000   0.03892   0.03927   1.97052
    A5        1.88578  -0.00082   0.00000  -0.01893  -0.01881   1.86697
    A6        1.90486  -0.00376   0.00000  -0.01537  -0.01706   1.88780
    A7        1.93557  -0.00351   0.00000  -0.02816  -0.02785   1.90772
    A8        1.91759   0.00328   0.00000   0.03442   0.03398   1.95158
    A9        1.88782  -0.00006   0.00000  -0.01291  -0.01281   1.87501
   A10        1.95075  -0.00082   0.00000   0.00648   0.00601   1.95677
   A11        1.91002  -0.00053   0.00000  -0.01072  -0.01068   1.89934
   A12        1.91377   0.00076   0.00000   0.00660   0.00664   1.92040
   A13        1.90392   0.00065   0.00000  -0.00427  -0.00400   1.89992
   A14        1.91536   0.00074   0.00000   0.01329   0.01317   1.92853
   A15        1.86814  -0.00081   0.00000  -0.01236  -0.01238   1.85576
   A16        1.93606   0.00022   0.00000  -0.00189  -0.00240   1.93366
   A17        1.91594  -0.00042   0.00000  -0.00227  -0.00221   1.91373
   A18        1.91248   0.00055   0.00000   0.00753   0.00773   1.92021
   A19        1.91594  -0.00042   0.00000  -0.00227  -0.00221   1.91373
   A20        1.91247   0.00055   0.00000   0.00753   0.00773   1.92021
   A21        1.86976  -0.00051   0.00000  -0.00878  -0.00883   1.86092
   A22        1.95075  -0.00082   0.00000   0.00648   0.00601   1.95677
   A23        1.91536   0.00074   0.00000   0.01329   0.01317   1.92853
   A24        1.90392   0.00065   0.00000  -0.00427  -0.00400   1.89992
   A25        1.91377   0.00076   0.00000   0.00660   0.00664   1.92040
   A26        1.91001  -0.00053   0.00000  -0.01071  -0.01067   1.89934
   A27        1.86814  -0.00080   0.00000  -0.01236  -0.01238   1.85576
   A28        1.93125   0.00466   0.00000   0.03892   0.03927   1.97052
   A29        1.90486  -0.00376   0.00000  -0.01536  -0.01706   1.88780
   A30        1.88578  -0.00082   0.00000  -0.01893  -0.01881   1.86697
   A31        1.91759   0.00328   0.00000   0.03443   0.03398   1.95158
   A32        1.93557  -0.00351   0.00000  -0.02816  -0.02785   1.90772
   A33        1.88782  -0.00006   0.00000  -0.01291  -0.01281   1.87501
    D1        2.37139   0.00070   0.00000  -0.10154  -0.10163   2.26976
    D2       -1.78973  -0.00128   0.00000  -0.12452  -0.12453  -1.91426
    D3        0.25923  -0.00388   0.00000  -0.15890  -0.15852   0.10071
    D4       -0.86753   0.00386   0.00000   0.09228   0.09199  -0.77553
    D5        1.25455   0.00187   0.00000   0.06930   0.06909   1.32363
    D6       -2.97969  -0.00072   0.00000   0.03492   0.03510  -2.94458
    D7       -2.37139  -0.00070   0.00000   0.10154   0.10163  -2.26976
    D8       -0.25923   0.00388   0.00000   0.15890   0.15852  -0.10071
    D9        1.78972   0.00128   0.00000   0.12452   0.12454   1.91426
   D10        0.86753  -0.00386   0.00000  -0.09228  -0.09199   0.77553
   D11        2.97969   0.00072   0.00000  -0.03492  -0.03510   2.94458
   D12       -1.25455  -0.00187   0.00000  -0.06930  -0.06909  -1.32363
   D13        0.90832  -0.00041   0.00000  -0.03569  -0.03589   0.87243
   D14       -1.20267  -0.00033   0.00000  -0.02728  -0.02753  -1.23020
   D15        3.03633   0.00051   0.00000  -0.00992  -0.01021   3.02612
   D16       -1.18415  -0.00015   0.00000  -0.01910  -0.01909  -1.20323
   D17        2.98804  -0.00007   0.00000  -0.01069  -0.01073   2.97732
   D18        0.94387   0.00078   0.00000   0.00667   0.00659   0.95045
   D19        3.01292   0.00004   0.00000  -0.00742  -0.00681   3.00611
   D20        0.90192   0.00012   0.00000   0.00099   0.00155   0.90347
   D21       -1.14225   0.00096   0.00000   0.01835   0.01887  -1.12339
   D22       -0.99410   0.00133   0.00000   0.01043   0.01065  -0.98344
   D23        1.12640   0.00068   0.00000   0.00482   0.00485   1.13125
   D24       -3.10794   0.00014   0.00000  -0.00273  -0.00264  -3.11057
   D25        1.12044   0.00057   0.00000  -0.00172  -0.00158   1.11886
   D26       -3.04225  -0.00008   0.00000  -0.00733  -0.00738  -3.04963
   D27       -0.99340  -0.00062   0.00000  -0.01489  -0.01487  -1.00827
   D28       -3.12119   0.00040   0.00000  -0.01151  -0.01136  -3.13256
   D29       -1.00070  -0.00026   0.00000  -0.01712  -0.01716  -1.01786
   D30        1.04815  -0.00080   0.00000  -0.02467  -0.02465   1.02350
   D31        0.99410  -0.00133   0.00000  -0.01043  -0.01065   0.98344
   D32        3.12120  -0.00040   0.00000   0.01151   0.01136   3.13256
   D33       -1.12044  -0.00057   0.00000   0.00172   0.00158  -1.11886
   D34       -1.12640  -0.00068   0.00000  -0.00482  -0.00485  -1.13125
   D35        1.00070   0.00026   0.00000   0.01712   0.01716   1.01786
   D36        3.04226   0.00008   0.00000   0.00733   0.00738   3.04963
   D37        3.10794  -0.00014   0.00000   0.00273   0.00264   3.11057
   D38       -1.04815   0.00080   0.00000   0.02467   0.02465  -1.02350
   D39        0.99341   0.00062   0.00000   0.01488   0.01487   1.00827
   D40       -0.90832   0.00041   0.00000   0.03569   0.03589  -0.87243
   D41       -3.01292  -0.00004   0.00000   0.00742   0.00681  -3.00611
   D42        1.18415   0.00015   0.00000   0.01909   0.01909   1.20323
   D43       -3.03634  -0.00051   0.00000   0.00993   0.01021  -3.02612
   D44        1.14225  -0.00096   0.00000  -0.01835  -0.01886   1.12339
   D45       -0.94387  -0.00078   0.00000  -0.00667  -0.00659  -0.95046
   D46        1.20267   0.00033   0.00000   0.02728   0.02753   1.23020
   D47       -0.90192  -0.00012   0.00000  -0.00099  -0.00155  -0.90347
   D48       -2.98804   0.00007   0.00000   0.01069   0.01073  -2.97732
         Item               Value     Threshold  Converged?
 Maximum Force            0.016968     0.000450     NO 
 RMS     Force            0.003249     0.000300     NO 
 Maximum Displacement     0.113363     0.001800     NO 
 RMS     Displacement     0.023417     0.001200     NO 
 Predicted change in Energy=-3.194205D-03
 Lowest energy point so far.  Saving SCF results.
 GradGradGradGradGradGradGradGradGradGradGradGradGradGradGradGradGradGrad

 Leave Link  103 at Thu Mar 19 18:35:39 2026, MaxMem=   536870912 cpu:         0.0
 (Enter C:\G09W\l202.exe)
                          Input orientation:                          
 ---------------------------------------------------------------------
 Center     Atomic      Atomic             Coordinates (Angstroms)
 Number     Number       Type             X           Y           Z
 ---------------------------------------------------------------------
      1          8           0       -2.263291    1.523993   -0.070163
      2          6           0       -1.263474    0.894621    0.235428
      3          6           0       -1.314615   -0.597038    0.543036
      4          6           0       -0.251642   -1.407282   -0.231285
      5          6           0        1.151493   -0.796652   -0.097610
      6          6           0        1.155578    0.667334   -0.562640
      7          6           0        0.124061    1.523954    0.204274
      8          1           0       -1.140688   -0.708183    1.623560
      9          1           0       -2.328316   -0.953525    0.335804
     10          1           0       -0.528831   -1.430994   -1.294220
     11          1           0       -0.251096   -2.450115    0.110761
     12          1           0        1.480967   -0.852770    0.950268
     13          1           0        1.872288   -1.379377   -0.684939
     14          1           0        2.157954    1.101467   -0.456494
     15          1           0        0.916704    0.700111   -1.634597
     16          1           0        0.033560    2.528508   -0.220342
     17          1           0        0.449346    1.635949    1.249159
 ---------------------------------------------------------------------
                    Distance matrix (angstroms):
                    1          2          3          4          5
     1  O    0.000000
     2  C    1.220299   0.000000
     3  C    2.403075   1.523904   0.000000
     4  C    3.558801   2.557417   1.544662   0.000000
     5  C    4.128788   2.967049   2.555770   1.536074   0.000000
     6  C    3.558801   2.557417   2.987140   2.528655   1.536074
     7  C    2.403075   1.523904   2.585180   2.987141   2.555770
     8  H    3.018534   2.123904   1.100062   2.172462   2.867811
     9  H    2.511401   2.135324   1.094357   2.200014   3.510203
    10  H    3.638491   2.878890   2.165283   1.098739   2.158183
    11  H    4.458160   3.496814   2.179869   1.097495   2.178214
    12  H    4.550797   3.331115   2.836638   2.169213   1.099886
    13  H    5.090238   3.981349   3.503759   2.172017   1.097301
    14  H    4.458160   3.496814   3.992833   3.485784   2.178214
    15  H    3.638490   2.878889   3.376902   2.788444   2.158183
    16  H    2.511400   2.135324   3.488461   3.946125   3.510203
    17  H    3.018534   2.123904   2.931962   3.456061   2.867811
                    6          7          8          9         10
     6  C    0.000000
     7  C    1.544662   0.000000
     8  H    3.456060   2.931962   0.000000
     9  H    3.946125   3.488461   1.768890   0.000000
    10  H    2.788445   3.376903   3.067616   2.474490   0.000000
    11  H    3.485784   3.992832   2.472703   2.570071   1.757758
    12  H    2.169213   2.836638   2.710590   3.859839   3.067794
    13  H    2.172017   3.503759   3.854567   4.343770   2.477753
    14  H    1.097495   2.179869   4.299127   4.997734   3.786021
    15  H    1.098739   2.165283   4.102651   4.140912   2.597506
    16  H    2.200014   1.094357   3.905765   4.244091   4.140913
    17  H    2.172463   1.100062   2.857156   3.905765   4.102652
                   11         12         13         14         15
    11  H    0.000000
    12  H    2.501265   0.000000
    13  H    2.507664   1.761916   0.000000
    14  H    4.328860   2.501266   2.507664   0.000000
    15  H    3.786021   3.067794   2.477753   1.757758   0.000000
    16  H    4.997734   3.859839   4.343770   2.570071   2.474490
    17  H    4.299127   2.710590   3.854567   2.472704   3.067616
                   16         17
    16  H    0.000000
    17  H    1.768890   0.000000
 Stoichiometry    C6H10O
 Framework group  C1[X(C6H10O)]
 Deg. of freedom    45
 Full point group                 C1      NOp   1
 RotChk:  IX=3 Diff= 2.38D-03
 Largest Abelian subgroup         C1      NOp   1
 Largest concise Abelian subgroup C1      NOp   1
                         Standard orientation:                         
 ---------------------------------------------------------------------
 Center     Atomic      Atomic             Coordinates (Angstroms)
 Number     Number       Type             X           Y           Z
 ---------------------------------------------------------------------
      1          8           0        2.304568    0.000000   -0.346998
      2          6           0        1.168947    0.000000    0.099651
      3          6           0        0.396187    1.292590    0.332753
      4          6           0       -1.021401    1.264327   -0.280131
      5          6           0       -1.798050    0.000000    0.117130
      6          6           0       -1.021401   -1.264327   -0.280131
      7          6           0        0.396187   -1.292590    0.332754
      8          1           0        0.318965    1.428578    1.421643
      9          1           0        0.992500    2.122046   -0.059716
     10          1           0       -0.935063    1.298753   -1.374931
     11          1           0       -1.576162    2.164430    0.014065
     12          1           0       -1.974195    0.000000    1.202821
     13          1           0       -2.785650    0.000000   -0.361113
     14          1           0       -1.576161   -2.164431    0.014064
     15          1           0       -0.935062   -1.298753   -1.374931
     16          1           0        0.992501   -2.122045   -0.059715
     17          1           0        0.318965   -1.428578    1.421643
 ---------------------------------------------------------------------
 Rotational constants (GHZ):      4.1870320      2.4608364      1.7209620
 Leave Link  202 at Thu Mar 19 18:35:39 2026, MaxMem=   536870912 cpu:         0.0
 (Enter C:\G09W\l301.exe)
 Standard basis: 6-31G(d) (6D, 7F)
 Ernie: Thresh=  0.10000D-02 Tol=  0.10000D-05 Strict=F.
 There are   125 symmetry adapted cartesian basis functions of A   symmetry.
 There are   125 symmetry adapted basis functions of A   symmetry.
   125 basis functions,   236 primitive gaussians,   125 cartesian basis functions
    27 alpha electrons       27 beta electrons
       nuclear repulsion energy       308.0716784405 Hartrees.
 IExCor=  402 DFT=T Ex+Corr=B3LYP ExCW=0 ScaHFX=  0.200000
 ScaDFX=  0.800000  0.720000  1.000000  0.810000 ScalE2=  1.000000  1.000000
 IRadAn=      0 IRanWt=     -1 IRanGd=            0 ICorTp=0 IEmpDi=  4
 NAtoms=   17 NActive=   17 NUniq=   17 SFac= 1.00D+00 NAtFMM=   60 NAOKFM=F Big=F
 Integral buffers will be    131072 words long.
 Raffenetti 2 integral format.
 Two-electron integral symmetry is turned on.
 Leave Link  301 at Thu Mar 19 18:35:39 2026, MaxMem=   536870912 cpu:         0.0
 (Enter C:\G09W\l302.exe)
 NPDir=0 NMtPBC=     1 NCelOv=     1 NCel=       1 NClECP=     1 NCelD=      1
         NCelK=      1 NCelE2=     1 NClLst=     1 CellRange=     0.0.
 One-electron integrals computed using PRISM.
 NBasis=   125 RedAO= T EigKep=  3.74D-03  NBF=   125
 NBsUse=   125 1.00D-06 EigRej= -1.00D+00 NBFU=   125
 Precomputing XC quadrature grid using
 IXCGrd= 4 IRadAn=           0 IRanWt=          -1 IRanGd=           0 AccXCQ= 0.00D+00.
 Generated NRdTot=       0 NPtTot=           0 NUsed=           0 NTot=          32
 NSgBfM=   125   125   125   125   125 MxSgAt=    17 MxSgA2=    17.
 Leave Link  302 at Thu Mar 19 18:35:40 2026, MaxMem=   536870912 cpu:         0.0
 (Enter C:\G09W\l303.exe)
 DipDrv:  MaxL=1.
 Leave Link  303 at Thu Mar 19 18:35:40 2026, MaxMem=   536870912 cpu:         0.0
 (Enter C:\G09W\l401.exe)
 Initial guess from the checkpoint file:  "cyclohexanone_rdkit.chk"
 B after Tr=     0.000000    0.000000    0.000000
         Rot=    1.000000    0.000000   -0.000542    0.000000 Ang=  -0.06 deg.
 Guess basis will be translated and rotated to current coordinates.
 JPrj=2 DoOrth=T DoCkMO=T.
 Generating alternative initial guess.
 ExpMin= 1.61D-01 ExpMax= 5.48D+03 ExpMxC= 8.25D+02 IAcc=1 IRadAn=         1 AccDes= 0.00D+00
 Harris functional with IExCor=  402 and IRadAn=       1 diagonalized for initial guess.
 HarFok:  IExCor=  402 AccDes= 0.00D+00 IRadAn=         1 IDoV= 1 UseB2=F ITyADJ=14
 ICtDFT=  3500011 ScaDFX=  1.000000  1.000000  1.000000  1.000000
 FoFCou: FMM=F IPFlag=           0 FMFlag=      100000 FMFlg1=           0
         NFxFlg=           0 DoJE=T BraDBF=F KetDBF=T FulRan=T
         wScrn=  0.000000 ICntrl=     500 IOpCl=  0 I1Cent=   200000004 NGrid=           0
         NMat0=    1 NMatS0=      1 NMatT0=    0 NMatD0=    1 NMtDS0=    0 NMtDT0=    0
 Petite list used in FoFCou.
 Harris En= -309.934092563594    
 Leave Link  401 at Thu Mar 19 18:35:41 2026, MaxMem=   536870912 cpu:         1.0
 (Enter C:\G09W\l502.exe)
 Closed shell SCF:
 Using DIIS extrapolation, IDIIS=  1040.
 Integral symmetry usage will be decided dynamically.
 Keep R1 ints in memory in canonical form, NReq=32079007.
 IVT=       67132 IEndB=       67132 NGot=   536870912 MDV=   505792031
 LenX=   505792031 LenY=   505775965
 Requested convergence on RMS density matrix=1.00D-08 within 128 cycles.
 Requested convergence on MAX density matrix=1.00D-06.
 Requested convergence on             energy=1.00D-06.
 No special actions if energy rises.
 FoFCou: FMM=F IPFlag=           0 FMFlag=           0 FMFlg1=           0
         NFxFlg=           0 DoJE=F BraDBF=F KetDBF=F FulRan=T
         wScrn=  0.000000 ICntrl=     600 IOpCl=  0 I1Cent=           0 NGrid=           0
         NMat0=    1 NMatS0=   7875 NMatT0=    0 NMatD0=    1 NMtDS0=    0 NMtDT0=    0
 Symmetry not used in FoFCou.
 Integral accuracy reduced to 1.0D-05 until final iterations.

 Cycle   1  Pass 0  IDiag  1:
 E= -309.885495494903    
 DIIS: error= 3.91D-03 at cycle   1 NSaved=   1.
 NSaved= 1 IEnMin= 1 EnMin= -309.885495494903     IErMin= 1 ErrMin= 3.91D-03
 ErrMax= 3.91D-03  0.00D+00 EMaxC= 1.00D-01 BMatC= 2.79D-03 BMatP= 2.79D-03
 IDIUse=3 WtCom= 9.61D-01 WtEn= 3.91D-02
 Coeff-Com:  0.100D+01
 Coeff-En:   0.100D+01
 Coeff:      0.100D+01
 Gap=     1.708 Goal=   None    Shift=    0.000
 GapD=    1.708 DampG=2.000 DampE=1.000 DampFc=2.0000 IDamp=-1.
 RMSDP=8.85D-04 MaxDP=1.98D-02              OVMax= 2.23D-02

 Cycle   2  Pass 0  IDiag  1:
 E= -309.890337348652     Delta-E=       -0.004841853748 Rises=F Damp=F
 DIIS: error= 1.12D-03 at cycle   2 NSaved=   2.
 NSaved= 2 IEnMin= 2 EnMin= -309.890337348652     IErMin= 2 ErrMin= 1.12D-03
 ErrMax= 1.12D-03  0.00D+00 EMaxC= 1.00D-01 BMatC= 2.22D-04 BMatP= 2.79D-03
 IDIUse=3 WtCom= 9.89D-01 WtEn= 1.12D-02
 Coeff-Com:  0.473D-01 0.953D+00
 Coeff-En:   0.000D+00 0.100D+01
 Coeff:      0.468D-01 0.953D+00
 Gap=     0.220 Goal=   None    Shift=    0.000
 RMSDP=2.77D-04 MaxDP=6.28D-03 DE=-4.84D-03 OVMax= 9.40D-03

 Cycle   3  Pass 0  IDiag  1:
 E= -309.890086448320     Delta-E=        0.000250900331 Rises=F Damp=F
 DIIS: error= 2.17D-03 at cycle   3 NSaved=   3.
 NSaved= 3 IEnMin= 2 EnMin= -309.890337348652     IErMin= 2 ErrMin= 1.12D-03
 ErrMax= 2.17D-03  0.00D+00 EMaxC= 1.00D-01 BMatC= 5.63D-04 BMatP= 2.22D-04
 IDIUse=3 WtCom= 1.77D-01 WtEn= 8.23D-01
 Coeff-Com: -0.399D-01 0.644D+00 0.396D+00
 Coeff-En:   0.000D+00 0.668D+00 0.332D+00
 Coeff:     -0.704D-02 0.664D+00 0.343D+00
 Gap=     0.222 Goal=   None    Shift=    0.000
 RMSDP=1.70D-04 MaxDP=5.05D-03 DE= 2.51D-04 OVMax= 6.78D-03

 Cycle   4  Pass 0  IDiag  1:
 E= -309.890548247387     Delta-E=       -0.000461799066 Rises=F Damp=F
 DIIS: error= 3.02D-04 at cycle   4 NSaved=   4.
 NSaved= 4 IEnMin= 4 EnMin= -309.890548247387     IErMin= 4 ErrMin= 3.02D-04
 ErrMax= 3.02D-04  0.00D+00 EMaxC= 1.00D-01 BMatC= 1.17D-05 BMatP= 2.22D-04
 IDIUse=3 WtCom= 9.97D-01 WtEn= 3.02D-03
 Coeff-Com: -0.248D-01 0.278D+00 0.169D+00 0.578D+00
 Coeff-En:   0.000D+00 0.000D+00 0.000D+00 0.100D+01
 Coeff:     -0.247D-01 0.277D+00 0.168D+00 0.580D+00
 Gap=     0.222 Goal=   None    Shift=    0.000
 DSYEVD-2 returned Info=        8031 IAlg= 4 N=   125 NDim=   125 NE2=     4046206 trying  DSYEV.
 RMSDP=3.15D-05 MaxDP=6.39D-04 DE=-4.62D-04 OVMax= 1.02D-03

 Cycle   5  Pass 0  IDiag  1:
 E= -309.890558046239     Delta-E=       -0.000009798853 Rises=F Damp=F
 DIIS: error= 7.22D-05 at cycle   5 NSaved=   5.
 NSaved= 5 IEnMin= 5 EnMin= -309.890558046239     IErMin= 5 ErrMin= 7.22D-05
 ErrMax= 7.22D-05  0.00D+00 EMaxC= 1.00D-01 BMatC= 1.36D-06 BMatP= 1.17D-05
 IDIUse=1 WtCom= 1.00D+00 WtEn= 0.00D+00
 Coeff-Com: -0.595D-02 0.506D-01 0.341D-01 0.276D+00 0.645D+00
 Coeff:     -0.595D-02 0.506D-01 0.341D-01 0.276D+00 0.645D+00
 Gap=     0.222 Goal=   None    Shift=    0.000
 RMSDP=8.74D-06 MaxDP=1.59D-04 DE=-9.80D-06 OVMax= 2.53D-04

 Initial convergence to 1.0D-05 achieved.  Increase integral accuracy.
 Cycle   6  Pass 1  IDiag  1:
 E= -309.890516426672     Delta-E=        0.000041619568 Rises=F Damp=F
 DIIS: error= 3.69D-05 at cycle   1 NSaved=   1.
 NSaved= 1 IEnMin= 1 EnMin= -309.890516426672     IErMin= 1 ErrMin= 3.69D-05
 ErrMax= 3.69D-05  0.00D+00 EMaxC= 1.00D-01 BMatC= 1.59D-07 BMatP= 1.59D-07
 IDIUse=1 WtCom= 1.00D+00 WtEn= 0.00D+00
 Coeff-Com:  0.100D+01
 Coeff:      0.100D+01
 Gap=     0.222 Goal=   None    Shift=    0.000
 RMSDP=8.74D-06 MaxDP=1.59D-04 DE= 4.16D-05 OVMax= 1.94D-04

 Cycle   7  Pass 1  IDiag  1:
 E= -309.890516636209     Delta-E=       -0.000000209538 Rises=F Damp=F
 DIIS: error= 5.44D-06 at cycle   2 NSaved=   2.
 NSaved= 2 IEnMin= 2 EnMin= -309.890516636209     IErMin= 2 ErrMin= 5.44D-06
 ErrMax= 5.44D-06  0.00D+00 EMaxC= 1.00D-01 BMatC= 1.01D-08 BMatP= 1.59D-07
 IDIUse=1 WtCom= 1.00D+00 WtEn= 0.00D+00
 Coeff-Com:  0.763D-01 0.924D+00
 Coeff:      0.763D-01 0.924D+00
 Gap=     0.222 Goal=   None    Shift=    0.000
 RMSDP=1.63D-06 MaxDP=2.58D-05 DE=-2.10D-07 OVMax= 3.42D-05

 Cycle   8  Pass 1  IDiag  1:
 E= -309.890516638988     Delta-E=       -0.000000002779 Rises=F Damp=F
 DIIS: error= 5.09D-06 at cycle   3 NSaved=   3.
 NSaved= 3 IEnMin= 3 EnMin= -309.890516638988     IErMin= 3 ErrMin= 5.09D-06
 ErrMax= 5.09D-06  0.00D+00 EMaxC= 1.00D-01 BMatC= 8.05D-09 BMatP= 1.01D-08
 IDIUse=1 WtCom= 1.00D+00 WtEn= 0.00D+00
 Coeff-Com: -0.144D-01 0.473D+00 0.541D+00
 Coeff:     -0.144D-01 0.473D+00 0.541D+00
 Gap=     0.222 Goal=   None    Shift=    0.000
 RMSDP=7.14D-07 MaxDP=1.54D-05 DE=-2.78D-09 OVMax= 1.70D-05

 Cycle   9  Pass 1  IDiag  1:
 E= -309.890516646480     Delta-E=       -0.000000007491 Rises=F Damp=F
 DIIS: error= 9.45D-07 at cycle   4 NSaved=   4.
 NSaved= 4 IEnMin= 4 EnMin= -309.890516646480     IErMin= 4 ErrMin= 9.45D-07
 ErrMax= 9.45D-07  0.00D+00 EMaxC= 1.00D-01 BMatC= 1.96D-10 BMatP= 8.05D-09
 IDIUse=1 WtCom= 1.00D+00 WtEn= 0.00D+00
 Coeff-Com: -0.994D-02 0.163D+00 0.228D+00 0.619D+00
 Coeff:     -0.994D-02 0.163D+00 0.228D+00 0.619D+00
 Gap=     0.222 Goal=   None    Shift=    0.000
 RMSDP=1.51D-07 MaxDP=2.31D-06 DE=-7.49D-09 OVMax= 3.84D-06

 Cycle  10  Pass 1  IDiag  1:
 E= -309.890516646661     Delta-E=       -0.000000000181 Rises=F Damp=F
 DIIS: error= 5.08D-07 at cycle   5 NSaved=   5.
 NSaved= 5 IEnMin= 5 EnMin= -309.890516646661     IErMin= 5 ErrMin= 5.08D-07
 ErrMax= 5.08D-07  0.00D+00 EMaxC= 1.00D-01 BMatC= 2.67D-11 BMatP= 1.96D-10
 IDIUse=1 WtCom= 1.00D+00 WtEn= 0.00D+00
 Coeff-Com: -0.458D-02 0.663D-01 0.950D-01 0.335D+00 0.509D+00
 Coeff:     -0.458D-02 0.663D-01 0.950D-01 0.335D+00 0.509D+00
 Gap=     0.222 Goal=   None    Shift=    0.000
 RMSDP=4.58D-08 MaxDP=1.53D-06 DE=-1.81D-10 OVMax= 2.02D-06

 Cycle  11  Pass 1  IDiag  1:
 E= -309.890516646668     Delta-E=       -0.000000000007 Rises=F Damp=F
 DIIS: error= 2.82D-07 at cycle   6 NSaved=   6.
 NSaved= 6 IEnMin= 6 EnMin= -309.890516646668     IErMin= 6 ErrMin= 2.82D-07
 ErrMax= 2.82D-07  0.00D+00 EMaxC= 1.00D-01 BMatC= 7.37D-12 BMatP= 2.67D-11
 IDIUse=1 WtCom= 1.00D+00 WtEn= 0.00D+00
 Coeff-Com: -0.117D-02 0.123D-01 0.176D-01 0.976D-01 0.351D+00 0.523D+00
 Coeff:     -0.117D-02 0.123D-01 0.176D-01 0.976D-01 0.351D+00 0.523D+00
 Gap=     0.222 Goal=   None    Shift=    0.000
 RMSDP=2.17D-08 MaxDP=6.70D-07 DE=-7.05D-12 OVMax= 8.78D-07

 Cycle  12  Pass 1  IDiag  1:
 E= -309.890516646668     Delta-E=        0.000000000000 Rises=F Damp=F
 DIIS: error= 3.81D-08 at cycle   7 NSaved=   7.
 NSaved= 7 IEnMin= 7 EnMin= -309.890516646668     IErMin= 7 ErrMin= 3.81D-08
 ErrMax= 3.81D-08  0.00D+00 EMaxC= 1.00D-01 BMatC= 2.82D-13 BMatP= 7.37D-12
 IDIUse=1 WtCom= 1.00D+00 WtEn= 0.00D+00
 Coeff-Com: -0.714D-04-0.958D-03-0.187D-02 0.709D-02 0.103D+00 0.234D+00
 Coeff-Com:  0.659D+00
 Coeff:     -0.714D-04-0.958D-03-0.187D-02 0.709D-02 0.103D+00 0.234D+00
 Coeff:      0.659D+00
 Gap=     0.222 Goal=   None    Shift=    0.000
 RMSDP=5.19D-09 MaxDP=9.76D-08 DE=-2.27D-13 OVMax= 1.23D-07

 SCF Done:  E(RB3LYP) =  -309.890516647     A.U. after   12 cycles
            NFock= 12  Conv=0.52D-08     -V/T= 2.0097
 KE= 3.069103104191D+02 PE=-1.335923240231D+03 EE= 4.110507347249D+02
 Leave Link  502 at Thu Mar 19 18:35:58 2026, MaxMem=   536870912 cpu:        17.0
 (Enter C:\G09W\l701.exe)
 Compute integral first derivatives.
 ... and contract with generalized density number  0.
 Leave Link  701 at Thu Mar 19 18:35:58 2026, MaxMem=   536870912 cpu:         0.0
 (Enter C:\G09W\l702.exe)
 L702 exits ... SP integral derivatives will be done elsewhere.
 Leave Link  702 at Thu Mar 19 18:35:59 2026, MaxMem=   536870912 cpu:         0.0
 (Enter C:\G09W\l703.exe)
 Compute integral first derivatives, UseDBF=F ICtDFT=           0.
 Integral derivatives from FoFJK, PRISM(SPDF).
 Calling FoFJK, ICntrl=      2127 FMM=F ISym2X=0 I1Cent= 0 IOpClX= 0 NMat=1 NMatS=1 NMatT=0.
 FoFJK:  IHMeth= 1 ICntrl=    2127 DoSepK=F KAlg= 0 I1Cent=   0 FoldK=F
 IRaf=         0 NMat=   1 IRICut=       1 DoRegI=T DoRafI=F ISym2E= 0.
 FoFCou: FMM=F IPFlag=           0 FMFlag=      100000 FMFlg1=         800
         NFxFlg=           0 DoJE=F BraDBF=F KetDBF=F FulRan=T
         wScrn=  0.000000 ICntrl=    2127 IOpCl=  0 I1Cent=           0 NGrid=           0
         NMat0=    1 NMatS0=      1 NMatT0=    0 NMatD0=    1 NMtDS0=    0 NMtDT0=    0
 Symmetry not used in FoFCou.
 Leave Link  703 at Thu Mar 19 18:36:03 2026, MaxMem=   536870912 cpu:         4.0
 (Enter C:\G09W\l716.exe)
 Dipole        =-1.16104658D+00 2.11812103D-07 3.51561268D-01
 ***** Axes restored to original set *****
 -------------------------------------------------------------------
 Center     Atomic                   Forces (Hartrees/Bohr)
 Number     Number              X              Y              Z
 -------------------------------------------------------------------
      1        8           0.003344761   -0.001346672    0.005773511
      2        6          -0.002939990   -0.000788270   -0.017421924
      3        6          -0.000335576    0.000176685    0.004517102
      4        6           0.001070762    0.000608040   -0.000861710
      5        6          -0.001554200    0.001149140    0.000594778
      6        6          -0.000273467   -0.001373462   -0.000545271
      7        6           0.000369676    0.001216429    0.004351030
      8        1           0.000716444   -0.001667021    0.000953580
      9        1           0.000169064    0.000271840    0.000408490
     10        1          -0.000188263    0.000029584   -0.000175039
     11        1          -0.000890122    0.000812329    0.000543431
     12        1           0.000027275    0.000009400    0.000174568
     13        1          -0.000200669    0.000162245    0.000163490
     14        1          -0.001001281    0.000648375    0.000569641
     15        1          -0.000124173    0.000124020   -0.000190109
     16        1          -0.000124289   -0.000160676    0.000477567
     17        1           0.001934049    0.000128016    0.000666865
 -------------------------------------------------------------------
 Cartesian Forces:  Max     0.017421924 RMS     0.002874912
 Leave Link  716 at Thu Mar 19 18:36:03 2026, MaxMem=   536870912 cpu:         0.0
 (Enter C:\G09W\l103.exe)

 GradGradGradGradGradGradGradGradGradGradGradGradGradGradGradGradGradGrad
 Berny optimization.
 Using GEDIIS/GDIIS optimizer.
 FormGI is forming the generalized inverse of G from B-inverse, IUseBI=4.
 Internal  Forces:  Max     0.004881081 RMS     0.001008909
 Search for a local minimum.
 Step number   2 out of a maximum of  102
 All quantities printed in internal units (Hartrees-Bohrs-Radians)
 RMS Force = .10089D-02 SwitMx=.10000D-02 MixMth= 1
 Mixed Optimization -- RFO/linear search
 Update second derivatives using D2CorX and points    1    2
 DE= -1.59D-03 DEPred=-3.19D-03 R= 4.98D-01
 Trust test= 4.98D-01 RLast= 3.94D-01 DXMaxT set to 3.00D-01
 ITU=  0  0
 Use linear search instead of GDIIS.
     Eigenvalues ---    0.00630   0.00654   0.00744   0.01296   0.02231
     Eigenvalues ---    0.03027   0.03927   0.04061   0.04683   0.04892
     Eigenvalues ---    0.05029   0.05569   0.05838   0.06100   0.07003
     Eigenvalues ---    0.08059   0.08109   0.08303   0.08549   0.09524
     Eigenvalues ---    0.09624   0.09843   0.11866   0.12139   0.16521
     Eigenvalues ---    0.16920   0.22153   0.24829   0.27641   0.28630
     Eigenvalues ---    0.28803   0.29020   0.30602   0.30796   0.33946
     Eigenvalues ---    0.33983   0.34010   0.34103   0.34153   0.34162
     Eigenvalues ---    0.34200   0.34231   0.34243   0.34260   0.87188
 RFO step:  Lambda=-1.29718439D-03 EMin= 6.30445759D-03
 Quartic linear search produced a step of -0.29679.
 Iteration  1 RMS(Cart)=  0.02137510 RMS(Int)=  0.00101194
 Iteration  2 RMS(Cart)=  0.00102642 RMS(Int)=  0.00046346
 Iteration  3 RMS(Cart)=  0.00000047 RMS(Int)=  0.00046346
 ITry= 1 IFail=0 DXMaxC= 1.13D-01 DCOld= 1.00D+10 DXMaxT= 3.00D-01 DXLimC= 3.00D+00 Rises=F
 Variable       Old X    -DE/DX   Delta X   Delta X   Delta X     New X
                                 (Linear)    (Quad)   (Total)
    R1        2.30603  -0.00488   0.00550  -0.01561  -0.01011   2.29592
    R2        2.87976   0.00071  -0.00649   0.01173   0.00549   2.88526
    R3        2.87976   0.00071  -0.00649   0.01173   0.00549   2.88526
    R4        2.91899  -0.00170  -0.01242   0.02274   0.01032   2.92930
    R5        2.07882   0.00122  -0.00263   0.00819   0.00556   2.08437
    R6        2.06804  -0.00032   0.00035  -0.00143  -0.00107   2.06696
    R7        2.90276  -0.00087  -0.00501   0.01258   0.00732   2.91008
    R8        2.07632   0.00022  -0.00081   0.00219   0.00138   2.07770
    R9        2.07397  -0.00060  -0.00101   0.00090  -0.00010   2.07386
   R10        2.90276  -0.00087  -0.00501   0.01258   0.00732   2.91008
   R11        2.07848   0.00017  -0.00176   0.00414   0.00238   2.08086
   R12        2.07360  -0.00031  -0.00084   0.00117   0.00033   2.07393
   R13        2.91899  -0.00170  -0.01242   0.02274   0.01032   2.92930
   R14        2.07397  -0.00060  -0.00101   0.00090  -0.00010   2.07386
   R15        2.07632   0.00022  -0.00081   0.00219   0.00138   2.07770
   R16        2.06804  -0.00032   0.00035  -0.00143  -0.00107   2.06696
   R17        2.07882   0.00122  -0.00263   0.00819   0.00556   2.08437
    A1        2.12691  -0.00003  -0.00125   0.01289   0.00876   2.13567
    A2        2.12691  -0.00003  -0.00125   0.01290   0.00876   2.13567
    A3        2.02519   0.00039   0.00247  -0.01662  -0.01540   2.00979
[...]
 ! D16   D(8,3,4,5)            -66.7771         -DE/DX =    0.0                 !
 ! D17   D(8,3,4,10)           172.4553         -DE/DX =    0.0                 !
 ! D18   D(8,3,4,11)            56.1878         -DE/DX =    0.0                 !
 ! D19   D(9,3,4,5)            174.213          -DE/DX =    0.0                 !
 ! D20   D(9,3,4,10)            53.4455         -DE/DX =    0.0                 !
 ! D21   D(9,3,4,11)           -62.822          -DE/DX =    0.0                 !
 ! D22   D(3,4,5,6)            -56.4751         -DE/DX =    0.0                 !
 ! D23   D(3,4,5,12)            64.605          -DE/DX =    0.0                 !
 ! D24   D(3,4,5,13)          -178.6077         -DE/DX =    0.0                 !
 ! D25   D(10,4,5,6)            64.1932         -DE/DX =    0.0                 !
 ! D26   D(10,4,5,12)         -174.7268         -DE/DX =    0.0                 !
 ! D27   D(10,4,5,13)          -57.9395         -DE/DX =    0.0                 !
 ! D28   D(11,4,5,6)          -178.8323         -DE/DX =    0.0                 !
 ! D29   D(11,4,5,12)          -57.7523         -DE/DX =    0.0                 !
 ! D30   D(11,4,5,13)           59.0351         -DE/DX =    0.0                 !
 ! D31   D(4,5,6,7)             56.475          -DE/DX =    0.0                 !
 ! D32   D(4,5,6,14)           178.8323         -DE/DX =    0.0                 !
 ! D33   D(4,5,6,15)           -64.1932         -DE/DX =    0.0                 !
 ! D34   D(12,5,6,7)           -64.605          -DE/DX =    0.0                 !
 ! D35   D(12,5,6,14)           57.7523         -DE/DX =    0.0                 !
 ! D36   D(12,5,6,15)          174.7268         -DE/DX =    0.0                 !
 ! D37   D(13,5,6,7)           178.6077         -DE/DX =    0.0                 !
 ! D38   D(13,5,6,14)          -59.0351         -DE/DX =    0.0                 !
 ! D39   D(13,5,6,15)           57.9395         -DE/DX =    0.0                 !
 ! D40   D(5,6,7,2)            -51.94           -DE/DX =    0.0                 !
 ! D41   D(5,6,7,16)          -174.213          -DE/DX =    0.0                 !
 ! D42   D(5,6,7,17)            66.7771         -DE/DX =    0.0                 !
 ! D43   D(14,6,7,2)          -174.9049         -DE/DX =    0.0                 !
 ! D44   D(14,6,7,16)           62.822          -DE/DX =    0.0                 !
 ! D45   D(14,6,7,17)          -56.1878         -DE/DX =    0.0                 !
 ! D46   D(15,6,7,2)            68.8276         -DE/DX =    0.0                 !
 ! D47   D(15,6,7,16)          -53.4455         -DE/DX =    0.0                 !
 ! D48   D(15,6,7,17)         -172.4553         -DE/DX =    0.0                 !
 --------------------------------------------------------------------------------
 Lowest energy point so far.  Saving SCF results.
 GradGradGradGradGradGradGradGradGradGradGradGradGradGradGradGradGradGrad

 Largest change from initial coordinates is atom   16       0.051 Angstoms.
 Leave Link  103 at Thu Mar 19 18:38:12 2026, MaxMem=   536870912 cpu:         0.0
 (Enter C:\G09W\l202.exe)
                          Input orientation:                          
 ---------------------------------------------------------------------
 Center     Atomic      Atomic             Coordinates (Angstroms)
 Number     Number       Type             X           Y           Z
 ---------------------------------------------------------------------
      1          8           0       -2.264405    1.519227   -0.104731
      2          6           0       -1.265403    0.887505    0.182679
      3          6           0       -1.310011   -0.592766    0.545025
      4          6           0       -0.255701   -1.407567   -0.234606
      5          6           0        1.144751   -0.792757   -0.101853
      6          6           0        1.153808    0.670426   -0.566500
      7          6           0        0.122203    1.518698    0.207784
      8          1           0       -1.099512   -0.677560    1.622599
      9          1           0       -2.325568   -0.962414    0.375394
     10          1           0       -0.538575   -1.437965   -1.296101
     11          1           0       -0.257860   -2.445785    0.118582
     12          1           0        1.471148   -0.846563    0.947425
     13          1           0        1.868057   -1.376448   -0.684565
     14          1           0        2.152567    1.107825   -0.448996
     15          1           0        0.919088    0.711018   -1.639334
     16          1           0        0.048497    2.537589   -0.183622
     17          1           0        0.436913    1.587539    1.260820
 ---------------------------------------------------------------------
                    Distance matrix (angstroms):
                    1          2          3          4          5
     1  O    0.000000
     2  C    1.216422   0.000000
     3  C    2.406983   1.524626   0.000000
     4  C    3.552165   2.541845   1.543791   0.000000
     5  C    4.119178   2.951793   2.546429   1.535214   0.000000
     6  C    3.552165   2.541845   2.983546   2.532770   1.535214
     7  C    2.406983   1.524626   2.573567   2.983546   2.546429
     8  H    3.027625   2.133146   1.101211   2.166595   2.832617
     9  H    2.528400   2.140862   1.093970   2.203317   3.507088
    10  H    3.625305   2.850067   2.167768   1.098961   2.162432
    11  H    4.449428   3.482825   2.173144   1.096651   2.179085
    12  H    4.545146   3.328744   2.821557   2.166548   1.100188
    13  H    5.079211   3.961839   3.496593   2.171125   1.097006
    14  H    4.449428   3.482825   3.983658   3.488970   2.179085
    15  H    3.625305   2.850067   3.382330   2.800320   2.162432
    16  H    2.528400   2.140862   3.489354   3.957195   3.507088
    17  H    3.027625   2.133146   2.884065   3.418577   2.832617
                    6          7          8          9         10
     6  C    0.000000
     7  C    1.543791   0.000000
     8  H    3.418577   2.884065   0.000000
     9  H    3.957195   3.489354   1.771969   0.000000
    10  H    2.800320   3.382330   3.067845   2.492667   0.000000
    11  H    3.488970   3.983658   2.469223   2.557686   1.759497
    12  H    2.166548   2.821557   2.663214   3.841314   3.069553
    13  H    2.171125   3.496593   3.823338   4.345277   2.483876
    14  H    1.096651   2.173144   4.249131   5.001919   3.800116
    15  H    1.098961   2.167768   4.079595   4.169808   2.619298
    16  H    2.203317   1.093970   3.862323   4.265995   4.169808
    17  H    2.166595   1.101211   2.760825   3.862323   4.079595
                   11         12         13         14         15
    11  H    0.000000
    12  H    2.496789   0.000000
    13  H    2.511583   1.761167   0.000000
    14  H    4.331332   2.496789   2.511583   0.000000
    15  H    3.800116   3.069553   2.483876   1.759497   0.000000
    16  H    5.001919   3.841314   4.345277   2.557686   2.492667
    17  H    4.249131   2.663214   3.823338   2.469223   3.067845
                   16         17
    16  H    0.000000
    17  H    1.771969   0.000000
 Stoichiometry    C6H10O
 Framework group  C1[X(C6H10O)]
 Deg. of freedom    45
 Full point group                 C1      NOp   1
 RotChk:  IX=3 Diff= 3.03D-09
 Largest Abelian subgroup         C1      NOp   1
 Largest concise Abelian subgroup C1      NOp   1
                         Standard orientation:                         
 ---------------------------------------------------------------------
 Center     Atomic      Atomic             Coordinates (Angstroms)
 Number     Number       Type             X           Y           Z
 ---------------------------------------------------------------------
      1          8           0        2.302610    0.000000   -0.350103
      2          6           0        1.160246    0.000000    0.067854
      3          6           0        0.392491    1.286784    0.349325
      4          6           0       -1.015479    1.266385   -0.283522
      5          6           0       -1.791308    0.000000    0.105374
      6          6           0       -1.015479   -1.266385   -0.283522
      7          6           0        0.392491   -1.286784    0.349325
      8          1           0        0.290098    1.380412    1.441760
      9          1           0        0.990521    2.132997   -0.001465
     10          1           0       -0.918030    1.309649   -1.377299
     11          1           0       -1.566895    2.165666    0.016272
     12          1           0       -1.973521    0.000000    1.190368
     13          1           0       -2.776530    0.000000   -0.377078
     14          1           0       -1.566895   -2.165666    0.016272
     15          1           0       -0.918030   -1.309649   -1.377299
     16          1           0        0.990521   -2.132997   -0.001465
     17          1           0        0.290098   -1.380412    1.441760
 ---------------------------------------------------------------------
 Rotational constants (GHZ):      4.1866284      2.4716505      1.7303932
 Leave Link  202 at Thu Mar 19 18:38:12 2026, MaxMem=   536870912 cpu:         0.0
 (Enter C:\G09W\l601.exe)
 Copying SCF densities to generalized density rwf, IOpCl= 0 IROHF=0.

 **********************************************************************

            Population analysis using the SCF density.

 **********************************************************************

 Orbital symmetries:
       Occupied  (A) (A) (A) (A) (A) (A) (A) (A) (A) (A) (A) (A)
                 (A) (A) (A) (A) (A) (A) (A) (A) (A) (A) (A) (A)
                 (A) (A) (A)
       Virtual   (A) (A) (A) (A) (A) (A) (A) (A) (A) (A) (A) (A)
                 (A) (A) (A) (A) (A) (A) (A) (A) (A) (A) (A) (A)
                 (A) (A) (A) (A) (A) (A) (A) (A) (A) (A) (A) (A)
                 (A) (A) (A) (A) (A) (A) (A) (A) (A) (A) (A) (A)
                 (A) (A) (A) (A) (A) (A) (A) (A) (A) (A) (A) (A)
                 (A) (A) (A) (A) (A) (A) (A) (A) (A) (A) (A) (A)
                 (A) (A) (A) (A) (A) (A) (A) (A) (A) (A) (A) (A)
                 (A) (A) (A) (A) (A) (A) (A) (A) (A) (A) (A) (A)
                 (A) (A)
 The electronic state is 1-A.
 Alpha  occ. eigenvalues --  -19.13200 -10.26821 -10.19450 -10.19450 -10.19132
 Alpha  occ. eigenvalues --  -10.19050 -10.19049  -1.03075  -0.83075  -0.75452
 Alpha  occ. eigenvalues --   -0.72508  -0.62710  -0.59175  -0.52965  -0.47517
 Alpha  occ. eigenvalues --   -0.45851  -0.44739  -0.43566  -0.41522  -0.40072
 Alpha  occ. eigenvalues --   -0.39058  -0.35783  -0.35741  -0.33194  -0.32858
 Alpha  occ. eigenvalues --   -0.32403  -0.23440
 Alpha virt. eigenvalues --   -0.01196   0.08738   0.10845   0.12534   0.14101
 Alpha virt. eigenvalues --    0.15562   0.15802   0.16536   0.16570   0.17366
 Alpha virt. eigenvalues --    0.18254   0.20851   0.22721   0.23159   0.26150
 Alpha virt. eigenvalues --    0.26752   0.31998   0.35158   0.51051   0.51792
 Alpha virt. eigenvalues --    0.53101   0.54301   0.55718   0.58708   0.59565
 Alpha virt. eigenvalues --    0.63045   0.64206   0.65641   0.69482   0.71051
 Alpha virt. eigenvalues --    0.73872   0.75152   0.76152   0.81492   0.82024
 Alpha virt. eigenvalues --    0.84939   0.85782   0.87405   0.88315   0.88561
 Alpha virt. eigenvalues --    0.92652   0.93305   0.94102   0.94458   0.96086
 Alpha virt. eigenvalues --    0.98972   1.04686   1.09474   1.10634   1.16992
 Alpha virt. eigenvalues --    1.19388   1.35744   1.37151   1.39399   1.49101
 Alpha virt. eigenvalues --    1.50658   1.55282   1.64936   1.68436   1.69986
 Alpha virt. eigenvalues --    1.75268   1.77985   1.81262   1.81818   1.83907
 Alpha virt. eigenvalues --    1.88016   1.93469   1.93544   1.96079   1.99375
 Alpha virt. eigenvalues --    2.02522   2.04360   2.06630   2.14146   2.15381
 Alpha virt. eigenvalues --    2.25210   2.30409   2.31274   2.35578   2.37368
 Alpha virt. eigenvalues --    2.38634   2.43765   2.48010   2.57873   2.60770
 Alpha virt. eigenvalues --    2.62665   2.68336   2.72073   2.75762   2.97990
 Alpha virt. eigenvalues --    3.01175   3.99167   4.11206   4.25142   4.25209
 Alpha virt. eigenvalues --    4.51195   4.54090   4.58177
          Condensed to atoms (all electrons):
               1          2          3          4          5          6
     1  O    7.995001   0.592825  -0.079012   0.001365   0.000081   0.001365
     2  C    0.592825   4.466009   0.326969  -0.022263  -0.014834  -0.022263
     3  C   -0.079012   0.326969   5.316797   0.333009  -0.043827  -0.003050
     4  C    0.001365  -0.022263   0.333009   5.022173   0.378961  -0.046817
     5  C    0.000081  -0.014834  -0.043827   0.378961   5.002159   0.378961
     6  C    0.001365  -0.022263  -0.003050  -0.046817   0.378961   5.022173
     7  C   -0.079012   0.326969  -0.140494  -0.003050  -0.043827   0.333009
     8  H    0.001276  -0.028487   0.347184  -0.036249  -0.003092  -0.001497
     9  H    0.004893  -0.023673   0.344551  -0.025655   0.004029  -0.000149
    10  H    0.000411  -0.002754  -0.042957   0.376553  -0.039857  -0.005505
    11  H   -0.000068   0.002981  -0.028358   0.368434  -0.030504   0.004933
    12  H   -0.000008  -0.001556  -0.003314  -0.042864   0.374220  -0.042864
    13  H    0.000001   0.000328   0.004508  -0.031482   0.368884  -0.031482
    14  H   -0.000068   0.002981  -0.000252   0.004933  -0.030504   0.368434
    15  H    0.000411  -0.002754   0.000376  -0.005505  -0.039857   0.376553
    16  H    0.004893  -0.023673   0.006633  -0.000149   0.004029  -0.025655
    17  H    0.001276  -0.028487   0.003553  -0.001497  -0.003092  -0.036249
               7          8          9         10         11         12
     1  O   -0.079012   0.001276   0.004893   0.000411  -0.000068  -0.000008
     2  C    0.326969  -0.028487  -0.023673  -0.002754   0.002981  -0.001556
     3  C   -0.140494   0.347184   0.344551  -0.042957  -0.028358  -0.003314
     4  C   -0.003050  -0.036249  -0.025655   0.376553   0.368434  -0.042864
     5  C   -0.043827  -0.003092   0.004029  -0.039857  -0.030504   0.374220
     6  C    0.333009  -0.001497  -0.000149  -0.005505   0.004933  -0.042864
     7  C    5.316797   0.003553   0.006633   0.000376  -0.000252  -0.003314
     8  H    0.003553   0.586029  -0.026581   0.005763  -0.006456   0.004764
     9  H    0.006633  -0.026581   0.559090  -0.003288  -0.002356  -0.000026
    10  H    0.000376   0.005763  -0.003288   0.596359  -0.036767   0.005837
    11  H   -0.000252  -0.006456  -0.002356  -0.036767   0.592026  -0.004028
    12  H   -0.003314   0.004764  -0.000026   0.005837  -0.004028   0.609828
    13  H    0.004508  -0.000038  -0.000141  -0.003991  -0.002334  -0.035799
    14  H   -0.028358  -0.000012   0.000015  -0.000010  -0.000181  -0.004028
    15  H   -0.042957   0.000106  -0.000043   0.004910  -0.000010   0.005837
    16  H    0.344551  -0.000139  -0.000178  -0.000043   0.000015  -0.000026
    17  H    0.347184   0.001230  -0.000139   0.000106  -0.000012   0.004764
              13         14         15         16         17
     1  O    0.000001  -0.000068   0.000411   0.004893   0.001276
     2  C    0.000328   0.002981  -0.002754  -0.023673  -0.028487
     3  C    0.004508  -0.000252   0.000376   0.006633   0.003553
     4  C   -0.031482   0.004933  -0.005505  -0.000149  -0.001497
     5  C    0.368884  -0.030504  -0.039857   0.004029  -0.003092
     6  C   -0.031482   0.368434   0.376553  -0.025655  -0.036249
     7  C    0.004508  -0.028358  -0.042957   0.344551   0.347184
     8  H   -0.000038  -0.000012   0.000106  -0.000139   0.001230
     9  H   -0.000141   0.000015  -0.000043  -0.000178  -0.000139
    10  H   -0.003991  -0.000010   0.004910  -0.000043   0.000106
    11  H   -0.002334  -0.000181  -0.000010   0.000015  -0.000012
    12  H   -0.035799  -0.004028   0.005837  -0.000026   0.004764
    13  H    0.592740  -0.002334  -0.003991  -0.000141  -0.000038
    14  H   -0.002334   0.592026  -0.036767  -0.002356  -0.006456
    15  H   -0.003991  -0.036767   0.596359  -0.003288   0.005763
    16  H   -0.000141  -0.002356  -0.003288   0.559090  -0.026581
    17  H   -0.000038  -0.006456   0.005763  -0.026581   0.586029
 Mulliken charges:
               1
     1  O   -0.445630
     2  C    0.451685
     3  C   -0.342314
     4  C   -0.269896
     5  C   -0.261929
     6  C   -0.269896
     7  C   -0.342314
     8  H    0.152646
     9  H    0.163018
    10  H    0.144857
    11  H    0.142937
    12  H    0.132576
    13  H    0.140802
    14  H    0.142937
    15  H    0.144857
    16  H    0.163018
    17  H    0.152646
 Sum of Mulliken charges =   0.00000
 Mulliken charges with hydrogens summed into heavy atoms:
               1
     1  O   -0.445630
     2  C    0.451685
     3  C   -0.026650
     4  C    0.017898
     5  C    0.011450
     6  C    0.017898
     7  C   -0.026650
 Electronic spatial extent (au):  <R**2>=            750.2741
 Charge=              0.0000 electrons
 Dipole moment (field-independent basis, Debye):
    X=             -2.9419    Y=              0.0000    Z=              0.8899  Tot=              3.0735
 Quadrupole moment (field-independent basis, Debye-Ang):
   XX=            -50.9902   YY=            -41.3249   ZZ=            -41.9284
   XY=              0.0000   XZ=              1.9515   YZ=              0.0000
 Traceless Quadrupole moment (field-independent basis, Debye-Ang):
   XX=             -6.2424   YY=              3.4230   ZZ=              2.8194
   XY=              0.0000   XZ=              1.9515   YZ=              0.0000
 Octapole moment (field-independent basis, Debye-Ang**2):
  XXX=            -14.7710  YYY=              0.0000  ZZZ=             -0.4306  XYY=              3.3073
  XXY=              0.0000  XXZ=              3.5102  XZZ=              2.5704  YZZ=              0.0000
  YYZ=             -0.0986  XYZ=              0.0000
 Hexadecapole moment (field-independent basis, Debye-Ang**3):
 XXXX=           -566.7994 YYYY=           -348.5250 ZZZZ=            -96.6880 XXXY=              0.0000
 XXXZ=              9.2902 YYYX=              0.0000 YYYZ=              0.0000 ZZZX=             -2.4297
 ZZZY=              0.0000 XXYY=           -142.6100 XXZZ=           -103.4625 YYZZ=            -76.4841
 XXYZ=              0.0000 YYXZ=             -2.5434 ZZXY=              0.0000
 N-N= 3.084812013646D+02 E-N=-1.336750300556D+03  KE= 3.069313854079D+02
 No NMR shielding tensors so no spin-rotation constants.
 Leave Link  601 at Thu Mar 19 18:38:13 2026, MaxMem=   536870912 cpu:         0.0
 (Enter C:\G09W\l9999.exe)
 1|1|UNPC-DESKTOP-GS7R1K3|FOpt|RB3LYP|6-31G(d)|C6H10O1|1172|19-Mar-2026
 |0||#p opt B3LYP/6-31G(d)||cyclohexanone||0,1|O,-2.2644053873,1.519226
 8024,-0.1047310656|C,-1.265403049,0.8875047803,0.1826793712|C,-1.31001
 06164,-0.5927661048,0.5450245764|C,-0.2557013059,-1.4075665406,-0.2346
 057725|C,1.1447512112,-0.7927565919,-0.1018527674|C,1.1538083248,0.670
 4258034,-0.5665001112|C,0.1222030228,1.5186980038,0.2077841587|H,-1.09
 95115124,-0.6775596151,1.6225985192|H,-2.3255678305,-0.9624144721,0.37
 53942968|H,-0.5385752193,-1.4379653767,-1.2961013007|H,-0.257859517,-2
 .4457846717,0.1185819408|H,1.471147804,-0.84656323,0.9474250099|H,1.86
 8057484,-1.3764479486,-0.6845653385|H,2.1525665362,1.1078248808,-0.448
 9961216|H,0.9190880187,0.7110181842,-1.6393342701|H,0.0484972382,2.537
 5893211,-0.1836219536|H,0.4369127955,1.587538772,1.2608198287||Version
 =EM64W-G09RevD.01|State=1-A|HF=-309.8912545|RMSD=8.978e-009|RMSF=9.776
 e-006|Dipole=1.0001456,-0.6434363,0.2189226|Quadrupole=-2.6219747,0.28
 65576,2.3354172,3.4130945,-0.5735199,0.3555653|PG=C01 [X(C6H10O1)]||@


 NEVER LOSE YOUR IGNORANCE, IT CAN'T BE REPLACED.
   -- ANDY CAPP
 Job cpu time:       0 days  0 hours  3 minutes  2.0 seconds.
 File lengths (MBytes):  RWF=     10 Int=      0 D2E=      0 Chk=      2 Scr=      1
 Normal termination of Gaussian 09 at Thu Mar 19 18:38:13 2026.
