 Entering Gaussian System, Link 0=C:\G09W\g09.exe
 Input=acetylene_ml.com
 Output=C:\workspace\delta_chem\data\raw\acetylene\acetylene_ml.out
 Initial command:
 C:\G09W\l1.exe ".\Gau-17164.inp" "C:\workspace\delta_chem\data\raw\acetylene\acetylene_ml.out" /scrdir=".\"
 Entering Link 1 = C:\G09W\l1.exe PID=     16836.
  
 Copyright (c) 1988,1990,1992,1993,1995,1998,2003,2009,2013,
            Gaussian, Inc.  All Rights Reserved.
  
 This is part of the Gaussian(R) 09 program.  It is based on
 the Gaussian(R) 03 system (copyright 2003, Gaussian, Inc.),
 the Gaussian(R) 98 system (copyright 1998, Gaussian, Inc.),
 the Gaussian(R) 94 system (copyright 1995, Gaussian, Inc.),
 the Gaussian 92(TM) system (copyright 1992, Gaussian, Inc.),
 the Gaussian 90(TM) system (copyright 1990, Gaussian, Inc.),
 the Gaussian 88(TM) system (copyright 1988, Gaussian, Inc.),
 the Gaussian 86(TM) system (copyright 1986, Carnegie Mellon
 University), and the Gaussian 82(TM) system (copyright 1983,
 Carnegie Mellon University). Gaussian is a federally registered
 trademark of Gaussian, Inc.
  
 This software contains proprietary and confidential information,
 including trade secrets, belonging to Gaussian, Inc.
  
 This software is provided under written license and may be
 used, copied, transmitted, or stored only in accord with that
 written license.
  
 The following legend is applicable only to US Government
 contracts under FAR:
  
                    RESTRICTED RIGHTS LEGEND
  
 Use, reproduction and disclosure by the US Government is
 subject to restrictions as set forth in subparagraphs (a)
 and (c) of the Commercial Computer Software - Restricted
 Rights clause in FAR 52.227-19.
  
 Gaussian, Inc.
 340 Quinnipiac St., Bldg. 40, Wallingford CT 06492
  
  
 ---------------------------------------------------------------
 Warning -- This program may not be used in any manner that
 competes with the business of Gaussian, Inc. or will provide
 assistance to any competitor of Gaussian, Inc.  The licensee
 of this program is prohibited from giving any competitor of
 Gaussian, Inc. access to this program.  By using this program,
 the user acknowledges that Gaussian, Inc. is engaged in the
 business of creating and licensing software in the field of
 computational chemistry and represents and warrants to the
 licensee that it is not a competitor of Gaussian, Inc. and that
 it will not use this program in any manner prohibited above.
 ---------------------------------------------------------------
  

 Cite this work as:
 Gaussian 09, Revision D.01,
 M. J. Frisch, G. W. Trucks, H. B. Schlegel, G. E. Scuseria, 
 M. A. Robb, J. R. Cheeseman, G. Scalmani, V. Barone, B. Mennucci, 
 G. A. Petersson, H. Nakatsuji, M. Caricato, X. Li, H. P. Hratchian, 
 A. F. Izmaylov, J. Bloino, G. Zheng, J. L. Sonnenberg, M. Hada, 
 M. Ehara, K. Toyota, R. Fukuda, J. Hasegawa, M. Ishida, T. Nakajima, 
 Y. Honda, O. Kitao, H. Nakai, T. Vreven, J. A. Montgomery, Jr., 
 J. E. Peralta, F. Ogliaro, M. Bearpark, J. J. Heyd, E. Brothers, 
 K. N. Kudin, V. N. Staroverov, T. Keith, R. Kobayashi, J. Normand, 
 K. Raghavachari, A. Rendell, J. C. Burant, S. S. Iyengar, J. Tomasi, 
 M. Cossi, N. Rega, J. M. Millam, M. Klene, J. E. Knox, J. B. Cross, 
 V. Bakken, C. Adamo, J. Jaramillo, R. Gomperts, R. E. Stratmann, 
 O. Yazyev, A. J. Austin, R. Cammi, C. Pomelli, J. W. Ochterski, 
 R. L. Martin, K. Morokuma, V. G. Zakrzewski, G. A. Voth, 
 P. Salvador, J. J. Dannenberg, S. Dapprich, A. D. Daniels, 
 O. Farkas, J. B. Foresman, J. V. Ortiz, J. Cioslowski, 
 and D. J. Fox, Gaussian, Inc., Wallingford CT, 2013.
 
 ******************************************
 Gaussian 09:  EM64W-G09RevD.01 13-Apr-2013
                20-Mar-2026 
 ******************************************
 %NProcShared=4
 Will use up to    4 processors via shared memory.
 %Mem=4GB
 %Chk=acetylene_ml.chk
 --------------------------
 #p opt freq B3LYP/6-31G(d)
 --------------------------
 1/14=-1,18=20,19=15,26=3,38=1/1,3;
 2/9=110,12=2,17=6,18=5,40=1/2;
 3/5=1,6=6,7=1,11=2,16=1,25=1,30=1,71=1,74=-5/1,2,3;
 4//1;
 5/5=2,38=5/2;
 6/7=2,8=2,9=2,10=2,28=1/1;
 7//1,2,3,16;
 1/14=-1,18=20,19=15,26=3/3(2);
 2/9=110/2;
 99//99;
 2/9=110/2;
 3/5=1,6=6,7=1,11=2,16=1,25=1,30=1,71=1,74=-5/1,2,3;
 4/5=5,16=3,69=1/1;
 5/5=2,38=5/2;
 7//1,2,3,16;
 1/14=-1,18=20,19=15,26=3/3(-5);
 2/9=110/2;
 6/7=2,8=2,9=2,10=2,19=2,28=1/1;
 99/9=1/99;
 Leave Link    1 at Fri Mar 20 15:33:12 2026, MaxMem=   536870912 cpu:         0.0
 (Enter C:\G09W\l101.exe)
 ----------------------
 acetylene ml-corrected
 ----------------------
 Symbolic Z-matrix:
 Charge =  0 Multiplicity = 1
 C                    -0.59696   0.25363   0.00966 
 C                     0.60223   0.13091  -0.00974 
 H                    -1.6575    0.36216   0.02681 
 H                     1.6575    0.02292  -0.02681 
 
 NAtoms=      4 NQM=        4 NQMF=       0 NMMI=      0 NMMIF=      0
                NMic=       0 NMicF=      0.
                    Isotopes and Nuclear Properties:
 (Nuclear quadrupole moments (NQMom) in fm**2, nuclear magnetic moments (NMagM)
  in nuclear magnetons)

  Atom         1           2           3           4
 IAtWgt=          12          12           1           1
 AtmWgt=  12.0000000  12.0000000   1.0078250   1.0078250
 NucSpn=           0           0           1           1
 AtZEff=   0.0000000   0.0000000   0.0000000   0.0000000
 NQMom=    0.0000000   0.0000000   0.0000000   0.0000000
 NMagM=    0.0000000   0.0000000   2.7928460   2.7928460
 AtZNuc=   6.0000000   6.0000000   1.0000000   1.0000000
 Leave Link  101 at Fri Mar 20 15:33:12 2026, MaxMem=   536870912 cpu:         0.0
 (Enter C:\G09W\l103.exe)

 GradGradGradGradGradGradGradGradGradGradGradGradGradGradGradGradGradGrad
 Berny optimization.
 Initialization pass.
                           ----------------------------
                           !    Initial Parameters    !
                           ! (Angstroms and Degrees)  !
 --------------------------                            --------------------------
 ! Name  Definition              Value          Derivative Info.                !
 --------------------------------------------------------------------------------
 ! R1    R(1,2)                  1.2056         estimate D2E/DX2                !
 ! R2    R(1,3)                  1.0662         estimate D2E/DX2                !
 ! R3    R(2,4)                  1.0609         estimate D2E/DX2                !
 ! A1    L(2,1,3,-3,-1)        180.0            estimate D2E/DX2                !
 ! A2    L(1,2,4,-3,-1)        180.0            estimate D2E/DX2                !
 ! A3    L(2,1,3,-2,-2)        180.0            estimate D2E/DX2                !
 ! A4    L(1,2,4,-2,-2)        179.9999         estimate D2E/DX2                !
 --------------------------------------------------------------------------------
 Trust Radius=3.00D-01 FncErr=1.00D-07 GrdErr=1.00D-06
 Number of steps in this run=     20 maximum allowed number of steps=    100.
 GradGradGradGradGradGradGradGradGradGradGradGradGradGradGradGradGradGrad

 Leave Link  103 at Fri Mar 20 15:33:13 2026, MaxMem=   536870912 cpu:         0.0
 (Enter C:\G09W\l202.exe)
                          Input orientation:                          
 ---------------------------------------------------------------------
 Center     Atomic      Atomic             Coordinates (Angstroms)
 Number     Number       Type             X           Y           Z
 ---------------------------------------------------------------------
      1          6           0       -0.596956    0.253629    0.009657
      2          6           0        0.602228    0.130912   -0.009742
      3          1           0       -1.657499    0.362159    0.026813
      4          1           0        1.657497    0.022923   -0.026814
 ---------------------------------------------------------------------
                    Distance matrix (angstroms):
                    1          2          3          4
     1  C    0.000000
     2  C    1.205603   0.000000
     3  H    1.066220   2.271823   0.000000
     4  H    2.266520   1.060917   3.332740   0.000000
 Stoichiometry    C2H2
 Framework group  C*V[C*(HCCH)]
 Deg. of freedom     3
 Full point group                 C*V     NOp   4
 Largest Abelian subgroup         C2V     NOp   4
 Largest concise Abelian subgroup C1      NOp   1
                         Standard orientation:                         
 ---------------------------------------------------------------------
 Center     Atomic      Atomic             Coordinates (Angstroms)
 Number     Number       Type             X           Y           Z
 ---------------------------------------------------------------------
      1          6           0        0.000000    0.000000   -0.602423
      2          6           0        0.000000    0.000000    0.603180
      3          1           0        0.000000    0.000000   -1.668642
      4          1           0        0.000000    0.000000    1.664098
 ---------------------------------------------------------------------
 Rotational constants (GHZ):      0.0000000     35.2969667     35.2969667
 Leave Link  202 at Fri Mar 20 15:33:13 2026, MaxMem=   536870912 cpu:         0.0
 (Enter C:\G09W\l301.exe)
 Standard basis: 6-31G(d) (6D, 7F)
 Ernie: Thresh=  0.10000D-02 Tol=  0.10000D-05 Strict=F.
 There are    20 symmetry adapted cartesian basis functions of A1  symmetry.
 There are     2 symmetry adapted cartesian basis functions of A2  symmetry.
 There are     6 symmetry adapted cartesian basis functions of B1  symmetry.
 There are     6 symmetry adapted cartesian basis functions of B2  symmetry.
 There are    20 symmetry adapted basis functions of A1  symmetry.
 There are     2 symmetry adapted basis functions of A2  symmetry.
 There are     6 symmetry adapted basis functions of B1  symmetry.
 There are     6 symmetry adapted basis functions of B2  symmetry.
    34 basis functions,    64 primitive gaussians,    34 cartesian basis functions
     7 alpha electrons        7 beta electrons
       nuclear repulsion energy        24.7293805976 Hartrees.
 IExCor=  402 DFT=T Ex+Corr=B3LYP ExCW=0 ScaHFX=  0.200000
 ScaDFX=  0.800000  0.720000  1.000000  0.810000 ScalE2=  1.000000  1.000000
 IRadAn=      0 IRanWt=     -1 IRanGd=            0 ICorTp=0 IEmpDi=  4
 NAtoms=    4 NActive=    4 NUniq=    4 SFac= 1.00D+00 NAtFMM=   60 NAOKFM=F Big=F
 Integral buffers will be    131072 words long.
 Raffenetti 2 integral format.
 Two-electron integral symmetry is turned on.
 Leave Link  301 at Fri Mar 20 15:33:13 2026, MaxMem=   536870912 cpu:         0.0
 (Enter C:\G09W\l302.exe)
 NPDir=0 NMtPBC=     1 NCelOv=     1 NCel=       1 NClECP=     1 NCelD=      1
         NCelK=      1 NCelE2=     1 NClLst=     1 CellRange=     0.0.
 One-electron integrals computed using PRISM.
 NBasis=    34 RedAO= T EigKep=  2.05D-03  NBF=    20     2     6     6
 NBsUse=    34 1.00D-06 EigRej= -1.00D+00 NBFU=    20     2     6     6
 Precomputing XC quadrature grid using
 IXCGrd= 4 IRadAn=           0 IRanWt=          -1 IRanGd=           0 AccXCQ= 0.00D+00.
 Generated NRdTot=       0 NPtTot=           0 NUsed=           0 NTot=          32
 NSgBfM=    34    34    34    34    34 MxSgAt=     4 MxSgA2=     4.
 Leave Link  302 at Fri Mar 20 15:33:13 2026, MaxMem=   536870912 cpu:         0.0
 (Enter C:\G09W\l303.exe)
 DipDrv:  MaxL=1.
 Leave Link  303 at Fri Mar 20 15:33:13 2026, MaxMem=   536870912 cpu:         0.0
 (Enter C:\G09W\l401.exe)
 ExpMin= 1.61D-01 ExpMax= 3.05D+03 ExpMxC= 4.57D+02 IAcc=1 IRadAn=         1 AccDes= 0.00D+00
 Harris functional with IExCor=  402 and IRadAn=       1 diagonalized for initial guess.
 HarFok:  IExCor=  402 AccDes= 0.00D+00 IRadAn=         1 IDoV= 1 UseB2=F ITyADJ=14
 ICtDFT=  3500011 ScaDFX=  1.000000  1.000000  1.000000  1.000000
 FoFCou: FMM=F IPFlag=           0 FMFlag=      100000 FMFlg1=           0
         NFxFlg=           0 DoJE=T BraDBF=F KetDBF=T FulRan=T
         wScrn=  0.000000 ICntrl=     500 IOpCl=  0 I1Cent=   200000004 NGrid=           0
         NMat0=    1 NMatS0=      1 NMatT0=    0 NMatD0=    1 NMtDS0=    0 NMtDT0=    0
 Petite list used in FoFCou.
 Harris En= -77.3706969943659    
 JPrj=0 DoOrth=F DoCkMO=F.
 Initial guess orbital symmetries:
       Occupied  (SG) (SG) (SG) (SG) (SG) (PI) (PI)
       Virtual   (PI) (PI) (SG) (SG) (SG) (SG) (PI) (PI) (PI) (PI)
                 (SG) (SG) (SG) (SG) (PI) (PI) (DLTA) (DLTA) (SG)
                 (DLTA) (DLTA) (SG) (PI) (PI) (SG) (SG) (SG)
 The electronic state of the initial guess is 1-SG.
 Leave Link  401 at Fri Mar 20 15:33:13 2026, MaxMem=   536870912 cpu:         0.0
 (Enter C:\G09W\l502.exe)
 Closed shell SCF:
 Using DIIS extrapolation, IDIIS=  1040.
 Integral symmetry usage will be decided dynamically.
 Keep R1 ints in memory in symmetry-blocked form, NReq=1062384.
 IVT=       22528 IEndB=       22528 NGot=   536870912 MDV=   536792883
 LenX=   536792883 LenY=   536791286
 Requested convergence on RMS density matrix=1.00D-08 within 128 cycles.
 Requested convergence on MAX density matrix=1.00D-06.
 Requested convergence on             energy=1.00D-06.
 No special actions if energy rises.
 FoFCou: FMM=F IPFlag=           0 FMFlag=           0 FMFlg1=           0
         NFxFlg=           0 DoJE=F BraDBF=F KetDBF=F FulRan=T
         wScrn=  0.000000 ICntrl=     600 IOpCl=  0 I1Cent=           0 NGrid=           0
         NMat0=    1 NMatS0=    595 NMatT0=    0 NMatD0=    1 NMtDS0=    0 NMtDT0=    0
 Petite list used in FoFCou.
 Integral accuracy reduced to 1.0D-05 until final iterations.

 Cycle   1  Pass 0  IDiag  1:
 E= -77.2509363259576    
 DIIS: error= 5.06D-02 at cycle   1 NSaved=   1.
 NSaved= 1 IEnMin= 1 EnMin= -77.2509363259576     IErMin= 1 ErrMin= 5.06D-02
 ErrMax= 5.06D-02  0.00D+00 EMaxC= 1.00D-01 BMatC= 6.54D-02 BMatP= 6.54D-02
 IDIUse=3 WtCom= 4.94D-01 WtEn= 5.06D-01
 Coeff-Com:  0.100D+01
 Coeff-En:   0.100D+01
 Coeff:      0.100D+01
 Gap=     0.314 Goal=   None    Shift=    0.000
 GapD=    0.314 DampG=1.000 DampE=0.500 DampFc=0.5000 IDamp=-1.
 Damping current iteration by 5.00D-01
 RMSDP=1.39D-02 MaxDP=9.41D-02              OVMax= 1.64D-01

 Cycle   2  Pass 0  IDiag  1:
 E= -77.2895789121245     Delta-E=       -0.038642586167 Rises=F Damp=T
 DIIS: error= 8.30D-03 at cycle   2 NSaved=   2.
 NSaved= 2 IEnMin= 2 EnMin= -77.2895789121245     IErMin= 2 ErrMin= 8.30D-03
 ErrMax= 8.30D-03  0.00D+00 EMaxC= 1.00D-01 BMatC= 1.61D-03 BMatP= 6.54D-02
 IDIUse=3 WtCom= 9.17D-01 WtEn= 8.30D-02
 Coeff-Com: -0.705D-01 0.107D+01
 Coeff-En:   0.000D+00 0.100D+01
 Coeff:     -0.647D-01 0.106D+01
 Gap=     0.336 Goal=   None    Shift=    0.000
 RMSDP=1.80D-03 MaxDP=1.64D-02 DE=-3.86D-02 OVMax= 7.79D-02

 Cycle   3  Pass 0  IDiag  1:
 E= -77.3255983841544     Delta-E=       -0.036019472030 Rises=F Damp=F
 DIIS: error= 7.66D-04 at cycle   3 NSaved=   3.
 NSaved= 3 IEnMin= 3 EnMin= -77.3255983841544     IErMin= 3 ErrMin= 7.66D-04
 ErrMax= 7.66D-04  0.00D+00 EMaxC= 1.00D-01 BMatC= 2.37D-05 BMatP= 1.61D-03
 IDIUse=3 WtCom= 9.92D-01 WtEn= 7.66D-03
 Coeff-Com: -0.153D-01 0.594D-01 0.956D+00
 Coeff-En:   0.000D+00 0.000D+00 0.100D+01
 Coeff:     -0.152D-01 0.590D-01 0.956D+00
 Gap=     0.334 Goal=   None    Shift=    0.000
 RMSDP=3.14D-04 MaxDP=2.44D-03 DE=-3.60D-02 OVMax= 4.33D-03

 Cycle   4  Pass 0  IDiag  1:
 E= -77.3255730815304     Delta-E=        0.000025302624 Rises=F Damp=F
 DIIS: error= 1.72D-03 at cycle   4 NSaved=   4.
 NSaved= 4 IEnMin= 3 EnMin= -77.3255983841544     IErMin= 3 ErrMin= 7.66D-04
 ErrMax= 1.72D-03  0.00D+00 EMaxC= 1.00D-01 BMatC= 5.08D-05 BMatP= 2.37D-05
 IDIUse=3 WtCom= 1.94D-01 WtEn= 8.06D-01
 Coeff-Com: -0.993D-02 0.321D-01 0.662D+00 0.316D+00
 Coeff-En:   0.000D+00 0.000D+00 0.651D+00 0.349D+00
 Coeff:     -0.193D-02 0.624D-02 0.653D+00 0.343D+00
 Gap=     0.334 Goal=   None    Shift=    0.000
 RMSDP=1.75D-04 MaxDP=1.85D-03 DE= 2.53D-05 OVMax= 3.38D-03

 Cycle   5  Pass 0  IDiag  1:
 E= -77.3256221082098     Delta-E=       -0.000049026679 Rises=F Damp=F
 DIIS: error= 3.16D-04 at cycle   5 NSaved=   5.
 NSaved= 5 IEnMin= 5 EnMin= -77.3256221082098     IErMin= 5 ErrMin= 3.16D-04
 ErrMax= 3.16D-04  0.00D+00 EMaxC= 1.00D-01 BMatC= 3.23D-06 BMatP= 2.37D-05
 IDIUse=3 WtCom= 9.97D-01 WtEn= 3.16D-03
 Coeff-Com:  0.412D-02-0.947D-02 0.836D-01 0.144D+00 0.778D+00
 Coeff-En:   0.000D+00 0.000D+00 0.000D+00 0.408D-03 0.100D+01
 Coeff:      0.411D-02-0.944D-02 0.834D-01 0.144D+00 0.778D+00
 Gap=     0.334 Goal=   None    Shift=    0.000
 RMSDP=4.81D-05 MaxDP=4.07D-04 DE=-4.90D-05 OVMax= 5.57D-04

 Cycle   6  Pass 0  IDiag  1:
 E= -77.3256256280019     Delta-E=       -0.000003519792 Rises=F Damp=F
 DIIS: error= 3.14D-06 at cycle   6 NSaved=   6.
 NSaved= 6 IEnMin= 6 EnMin= -77.3256256280019     IErMin= 6 ErrMin= 3.14D-06
 ErrMax= 3.14D-06  0.00D+00 EMaxC= 1.00D-01 BMatC= 3.37D-10 BMatP= 3.23D-06
 IDIUse=1 WtCom= 1.00D+00 WtEn= 0.00D+00
 Coeff-Com:  0.648D-04-0.878D-04-0.261D-02-0.300D-02-0.596D-02 0.101D+01
 Coeff:      0.648D-04-0.878D-04-0.261D-02-0.300D-02-0.596D-02 0.101D+01
 Gap=     0.334 Goal=   None    Shift=    0.000
 RMSDP=6.85D-07 MaxDP=6.76D-06 DE=-3.52D-06 OVMax= 5.73D-06

 Initial convergence to 1.0D-05 achieved.  Increase integral accuracy.
 Cycle   7  Pass 1  IDiag  1:
 E= -77.3256204805697     Delta-E=        0.000005147432 Rises=F Damp=F
 DIIS: error= 3.05D-06 at cycle   1 NSaved=   1.
 NSaved= 1 IEnMin= 1 EnMin= -77.3256204805697     IErMin= 1 ErrMin= 3.05D-06
 ErrMax= 3.05D-06  0.00D+00 EMaxC= 1.00D-01 BMatC= 1.46D-10 BMatP= 1.46D-10
 IDIUse=1 WtCom= 1.00D+00 WtEn= 0.00D+00
 Coeff-Com:  0.100D+01
 Coeff:      0.100D+01
 Gap=     0.334 Goal=   None    Shift=    0.000
 RMSDP=6.85D-07 MaxDP=6.76D-06 DE= 5.15D-06 OVMax= 3.45D-06

 Cycle   8  Pass 1  IDiag  1:
 E= -77.3256204806667     Delta-E=       -0.000000000097 Rises=F Damp=F
 DIIS: error= 6.09D-07 at cycle   2 NSaved=   2.
 NSaved= 2 IEnMin= 2 EnMin= -77.3256204806667     IErMin= 2 ErrMin= 6.09D-07
 ErrMax= 6.09D-07  0.00D+00 EMaxC= 1.00D-01 BMatC= 7.24D-12 BMatP= 1.46D-10
 IDIUse=1 WtCom= 1.00D+00 WtEn= 0.00D+00
 Coeff-Com:  0.675D-01 0.932D+00
 Coeff:      0.675D-01 0.932D+00
 Gap=     0.334 Goal=   None    Shift=    0.000
 RMSDP=1.93D-07 MaxDP=1.50D-06 DE=-9.70D-11 OVMax= 1.87D-06

 Cycle   9  Pass 1  IDiag  1:
 E= -77.3256204806634     Delta-E=        0.000000000003 Rises=F Damp=F
 DIIS: error= 6.48D-07 at cycle   3 NSaved=   3.
 NSaved= 3 IEnMin= 2 EnMin= -77.3256204806667     IErMin= 2 ErrMin= 6.09D-07
 ErrMax= 6.48D-07  0.00D+00 EMaxC= 1.00D-01 BMatC= 1.00D-11 BMatP= 7.24D-12
 IDIUse=1 WtCom= 1.00D+00 WtEn= 0.00D+00
 Coeff-Com: -0.662D-03 0.544D+00 0.456D+00
 Coeff:     -0.662D-03 0.544D+00 0.456D+00
 Gap=     0.334 Goal=   None    Shift=    0.000
 RMSDP=9.16D-08 MaxDP=1.01D-06 DE= 3.30D-12 OVMax= 1.72D-06

 Cycle  10  Pass 1  IDiag  1:
 E= -77.3256204806723     Delta-E=       -0.000000000009 Rises=F Damp=F
 DIIS: error= 3.30D-07 at cycle   4 NSaved=   4.
 NSaved= 4 IEnMin= 4 EnMin= -77.3256204806723     IErMin= 4 ErrMin= 3.30D-07
 ErrMax= 3.30D-07  0.00D+00 EMaxC= 1.00D-01 BMatC= 2.06D-12 BMatP= 7.24D-12
 IDIUse=1 WtCom= 1.00D+00 WtEn= 0.00D+00
 Coeff-Com: -0.852D-02 0.284D+00 0.328D+00 0.397D+00
 Coeff:     -0.852D-02 0.284D+00 0.328D+00 0.397D+00
 Gap=     0.334 Goal=   None    Shift=    0.000
 RMSDP=3.17D-08 MaxDP=3.50D-07 DE=-8.90D-12 OVMax= 5.96D-07

 Cycle  11  Pass 1  IDiag  1:
 E= -77.3256204806740     Delta-E=       -0.000000000002 Rises=F Damp=F
 DIIS: error= 9.05D-09 at cycle   5 NSaved=   5.
 NSaved= 5 IEnMin= 5 EnMin= -77.3256204806740     IErMin= 5 ErrMin= 9.05D-09
 ErrMax= 9.05D-09  0.00D+00 EMaxC= 1.00D-01 BMatC= 3.16D-15 BMatP= 2.06D-12
 IDIUse=1 WtCom= 1.00D+00 WtEn= 0.00D+00
 Coeff-Com: -0.101D-02 0.117D-01 0.250D-01 0.591D-01 0.905D+00
 Coeff:     -0.101D-02 0.117D-01 0.250D-01 0.591D-01 0.905D+00
 Gap=     0.334 Goal=   None    Shift=    0.000
 RMSDP=1.84D-09 MaxDP=1.37D-08 DE=-1.71D-12 OVMax= 2.04D-08

 SCF Done:  E(RB3LYP) =  -77.3256204807     A.U. after   11 cycles
            NFock= 11  Conv=0.18D-08     -V/T= 2.0102
 KE= 7.654332163400D+01 PE=-2.284619492035D+02 EE= 4.986362649127D+01
 Leave Link  502 at Fri Mar 20 15:33:14 2026, MaxMem=   536870912 cpu:         0.0
 (Enter C:\G09W\l601.exe)
 Copying SCF densities to generalized density rwf, IOpCl= 0 IROHF=0.

 **********************************************************************

            Population analysis using the SCF density.

 **********************************************************************

 Orbital symmetries:
       Occupied  (SG) (SG) (SG) (SG) (SG) (PI) (PI)
       Virtual   (PI) (PI) (SG) (SG) (SG) (SG) (PI) (PI) (PI) (PI)
                 (SG) (SG) (SG) (SG) (PI) (PI) (SG) (DLTA) (DLTA)
                 (DLTA) (DLTA) (SG) (PI) (PI) (SG) (SG) (SG)
 The electronic state is 1-SG.
 Alpha  occ. eigenvalues --  -10.19211 -10.18966  -0.74266  -0.56636  -0.49228
 Alpha  occ. eigenvalues --   -0.28188  -0.28188
 Alpha virt. eigenvalues --    0.05214   0.05214   0.10656   0.14979   0.42636
 Alpha virt. eigenvalues --    0.47065   0.53301   0.53301   0.65413   0.65413
 Alpha virt. eigenvalues --    0.74695   0.82552   1.03034   1.21887   1.50567
 Alpha virt. eigenvalues --    1.50567   1.50674   1.54931   1.54931   1.94322
 Alpha virt. eigenvalues --    1.94322   2.43408   2.48604   2.48604   3.19266
 Alpha virt. eigenvalues --    4.13622   4.33259
          Condensed to atoms (all electrons):
               1          2          3          4
     1  C    4.881311   0.981893   0.357854  -0.033473
     2  C    0.981893   4.878148  -0.031931   0.359229
     3  H    0.357854  -0.031931   0.483756   0.001981
     4  H   -0.033473   0.359229   0.001981   0.485680
 Mulliken charges:
               1
     1  C   -0.187585
     2  C   -0.187339
     3  H    0.188340
     4  H    0.186584
 Sum of Mulliken charges =   0.00000
 Mulliken charges with hydrogens summed into heavy atoms:
               1
     1  C    0.000755
     2  C   -0.000755
 Electronic spatial extent (au):  <R**2>=             59.8016
 Charge=              0.0000 electrons
 Dipole moment (field-independent basis, Debye):
    X=              0.0000    Y=              0.0000    Z=             -0.0049  Tot=              0.0049
 Quadrupole moment (field-independent basis, Debye-Ang):
   XX=            -13.0205   YY=            -13.0205   ZZ=             -6.7751
   XY=              0.0000   XZ=              0.0000   YZ=              0.0000
 Traceless Quadrupole moment (field-independent basis, Debye-Ang):
   XX=             -2.0818   YY=             -2.0818   ZZ=              4.1637
   XY=              0.0000   XZ=              0.0000   YZ=              0.0000
 Octapole moment (field-independent basis, Debye-Ang**2):
  XXX=              0.0000  YYY=              0.0000  ZZZ=             -0.0338  XYY=              0.0000
  XXY=              0.0000  XXZ=              0.0066  XZZ=              0.0000  YZZ=              0.0000
  YYZ=              0.0066  XYZ=              0.0000
 Hexadecapole moment (field-independent basis, Debye-Ang**3):
 XXXX=            -13.3494 YYYY=            -13.3494 ZZZZ=            -37.9861 XXXY=              0.0000
 XXXZ=              0.0000 YYYX=              0.0000 YYYZ=              0.0000 ZZZX=              0.0000
 ZZZY=              0.0000 XXYY=             -4.4498 XXZZ=            -11.5849 YYZZ=            -11.5849
 XXYZ=              0.0000 YYXZ=              0.0000 ZZXY=              0.0000
 N-N= 2.472938059757D+01 E-N=-2.284619488468D+02  KE= 7.654332163400D+01
 Symmetry A1   KE= 7.210788943639D+01
 Symmetry A2   KE= 5.580580459863D-34
 Symmetry B1   KE= 2.217716098805D+00
 Symmetry B2   KE= 2.217716098805D+00
 No NMR shielding tensors so no spin-rotation constants.
 Leave Link  601 at Fri Mar 20 15:33:14 2026, MaxMem=   536870912 cpu:         0.0
 (Enter C:\G09W\l701.exe)
 Compute integral first derivatives.
 ... and contract with generalized density number  0.
 Leave Link  701 at Fri Mar 20 15:33:15 2026, MaxMem=   536870912 cpu:         1.0
 (Enter C:\G09W\l702.exe)
 L702 exits ... SP integral derivatives will be done elsewhere.
 Leave Link  702 at Fri Mar 20 15:33:15 2026, MaxMem=   536870912 cpu:         0.0
 (Enter C:\G09W\l703.exe)
 Compute integral first derivatives, UseDBF=F ICtDFT=           0.
 Integral derivatives from FoFJK, PRISM(SPDF).
 Calling FoFJK, ICntrl=      2127 FMM=F ISym2X=1 I1Cent= 0 IOpClX= 0 NMat=1 NMatS=1 NMatT=0.
 FoFJK:  IHMeth= 1 ICntrl=    2127 DoSepK=F KAlg= 0 I1Cent=   0 FoldK=F
 IRaf=         0 NMat=   1 IRICut=       1 DoRegI=T DoRafI=F ISym2E= 1.
 FoFCou: FMM=F IPFlag=           0 FMFlag=      100000 FMFlg1=         800
         NFxFlg=           0 DoJE=F BraDBF=F KetDBF=F FulRan=T
         wScrn=  0.000000 ICntrl=    2127 IOpCl=  0 I1Cent=           0 NGrid=           0
         NMat0=    1 NMatS0=      1 NMatT0=    0 NMatD0=    1 NMtDS0=    0 NMtDT0=    0
 Petite list used in FoFCou.
 Leave Link  703 at Fri Mar 20 15:33:15 2026, MaxMem=   536870912 cpu:         0.0
 (Enter C:\G09W\l716.exe)
 Dipole        = 2.20336943D-18 7.77107571D-18-1.92026066D-03
 ***** Axes restored to original set *****
 -------------------------------------------------------------------
 Center     Atomic                   Forces (Hartrees/Bohr)
 Number     Number              X              Y              Z
 -------------------------------------------------------------------
      1        6           0.001754200   -0.000179514   -0.000028378
      2        6          -0.005980833    0.000612041    0.000096752
      3        1          -0.000341133    0.000034909    0.000005518
      4        1           0.004567766   -0.000467437   -0.000073893
 -------------------------------------------------------------------
 Cartesian Forces:  Max     0.005980833 RMS     0.002244820
 Leave Link  716 at Fri Mar 20 15:33:15 2026, MaxMem=   536870912 cpu:         0.0
 (Enter C:\G09W\l103.exe)

 GradGradGradGradGradGradGradGradGradGradGradGradGradGradGradGradGradGrad
 Berny optimization.
 FormGI is forming the generalized inverse of G from B-inverse, IUseBI=4.
 Internal  Forces:  Max     0.004592215 RMS     0.001821469
 Search for a local minimum.
 Step number   1 out of a maximum of   20
 All quantities printed in internal units (Hartrees-Bohrs-Radians)
 RMS Force = .18215D-02 SwitMx=.10000D-02 MixMth= 1
 Mixed Optimization -- RFO/linear search
 Second derivative matrix not updated -- first step.
 The second derivative matrix:
                          R1        R2        R3        A1        A2
           R1           1.02057
           R2           0.00000   0.37712
           R3           0.00000   0.00000   0.38402
           A1           0.00000   0.00000   0.00000   0.00549
           A2           0.00000   0.00000   0.00000   0.00000   0.00620
           A3           0.00000   0.00000   0.00000   0.00000   0.00000
           A4           0.00000   0.00000   0.00000   0.00000   0.00000
                          A3        A4
           A3           0.00549
           A4           0.00000   0.00620
 ITU=  0
     Eigenvalues ---    0.00549   0.00549   0.00620   0.00620   0.37712
     Eigenvalues ---    0.38402   1.02057
 RFO step:  Lambda=-5.72043294D-05 EMin= 5.49397248D-03
 Linear search not attempted -- first point.
 Iteration  1 RMS(Cart)=  0.00372834 RMS(Int)=  0.00000001
 Iteration  2 RMS(Cart)=  0.00000001 RMS(Int)=  0.00000000
 ITry= 1 IFail=0 DXMaxC= 8.45D-03 DCOld= 1.00D+10 DXMaxT= 3.00D-01 DXLimC= 3.00D+00 Rises=F
 ClnCor:  largest displacement from symmetrization is 2.45D-08 for atom     1.
 Variable       Old X    -DE/DX   Delta X   Delta X   Delta X     New X
                                 (Linear)    (Quad)   (Total)
    R1        2.27826  -0.00142   0.00000  -0.00139  -0.00139   2.27687
    R2        2.01486   0.00034   0.00000   0.00091   0.00091   2.01577
    R3        2.00484   0.00459   0.00000   0.01196   0.01196   2.01680
    A1        3.14159   0.00000   0.00000   0.00000   0.00000   3.14159
    A2        3.14159   0.00000   0.00000   0.00000   0.00000   3.14159
    A3        3.14159   0.00000   0.00000   0.00000   0.00000   3.14159
    A4        3.14159   0.00000   0.00000   0.00000   0.00000   3.14159
         Item               Value     Threshold  Converged?
 Maximum Force            0.004592     0.000450     NO 
 RMS     Force            0.001821     0.000300     NO 
 Maximum Displacement     0.008453     0.001800     NO 
 RMS     Displacement     0.003728     0.001200     NO 
 Predicted change in Energy=-2.860216D-05
 Lowest energy point so far.  Saving SCF results.
 GradGradGradGradGradGradGradGradGradGradGradGradGradGradGradGradGradGrad

 Leave Link  103 at Fri Mar 20 15:33:15 2026, MaxMem=   536870912 cpu:         0.0
 (Enter C:\G09W\l202.exe)
                          Input orientation:                          
 ---------------------------------------------------------------------
 Center     Atomic      Atomic             Coordinates (Angstroms)
 Number     Number       Type             X           Y           Z
 ---------------------------------------------------------------------
      1          6           0       -0.598043    0.253740    0.009675
      2          6           0        0.600408    0.131098   -0.009713
      3          1           0       -1.659065    0.362319    0.026839
      4          1           0        1.661970    0.022465   -0.026886
 ---------------------------------------------------------------------
                    Distance matrix (angstroms):
                    1          2          3          4
     1  C    0.000000
     2  C    1.204866   0.000000
     3  H    1.066701   2.271567   0.000000
     4  H    2.272111   1.067245   3.338812   0.000000
 Stoichiometry    C2H2
 Framework group  C*V[C*(HCCH)]
 Deg. of freedom     3
 Full point group                 C*V     NOp   4
 RotChk:  IX=2 Diff= 2.88D-01
 Largest Abelian subgroup         C2V     NOp   4
 Largest concise Abelian subgroup C1      NOp   1
                         Standard orientation:                         
 ---------------------------------------------------------------------
 Center     Atomic      Atomic             Coordinates (Angstroms)
 Number     Number       Type             X           Y           Z
 ---------------------------------------------------------------------
      1          6           0        0.000000    0.000000   -0.602472
      2          6           0        0.000000    0.000000    0.602394
      3          1           0        0.000000    0.000000   -1.669173
      4          1           0        0.000000    0.000000    1.669639
 ---------------------------------------------------------------------
 Rotational constants (GHZ):      0.0000000     35.2729556     35.2729556
 Leave Link  202 at Fri Mar 20 15:33:15 2026, MaxMem=   536870912 cpu:         0.0
 (Enter C:\G09W\l301.exe)
 Standard basis: 6-31G(d) (6D, 7F)
 Ernie: Thresh=  0.10000D-02 Tol=  0.10000D-05 Strict=F.
 There are    20 symmetry adapted cartesian basis functions of A1  symmetry.
 There are     2 symmetry adapted cartesian basis functions of A2  symmetry.
 There are     6 symmetry adapted cartesian basis functions of B1  symmetry.
 There are     6 symmetry adapted cartesian basis functions of B2  symmetry.
 There are    20 symmetry adapted basis functions of A1  symmetry.
 There are     2 symmetry adapted basis functions of A2  symmetry.
 There are     6 symmetry adapted basis functions of B1  symmetry.
 There are     6 symmetry adapted basis functions of B2  symmetry.
    34 basis functions,    64 primitive gaussians,    34 cartesian basis functions
     7 alpha electrons        7 beta electrons
       nuclear repulsion energy        24.7163764792 Hartrees.
 IExCor=  402 DFT=T Ex+Corr=B3LYP ExCW=0 ScaHFX=  0.200000
 ScaDFX=  0.800000  0.720000  1.000000  0.810000 ScalE2=  1.000000  1.000000
 IRadAn=      0 IRanWt=     -1 IRanGd=            0 ICorTp=0 IEmpDi=  4
 NAtoms=    4 NActive=    4 NUniq=    4 SFac= 1.00D+00 NAtFMM=   60 NAOKFM=F Big=F
 Integral buffers will be    131072 words long.
 Raffenetti 2 integral format.
 Two-electron integral symmetry is turned on.
 Leave Link  301 at Fri Mar 20 15:33:16 2026, MaxMem=   536870912 cpu:         1.0
 (Enter C:\G09W\l302.exe)
 NPDir=0 NMtPBC=     1 NCelOv=     1 NCel=       1 NClECP=     1 NCelD=      1
         NCelK=      1 NCelE2=     1 NClLst=     1 CellRange=     0.0.
 One-electron integrals computed using PRISM.
 NBasis=    34 RedAO= T EigKep=  2.05D-03  NBF=    20     2     6     6
 NBsUse=    34 1.00D-06 EigRej= -1.00D+00 NBFU=    20     2     6     6
 Precomputing XC quadrature grid using
 IXCGrd= 4 IRadAn=           0 IRanWt=          -1 IRanGd=           0 AccXCQ= 0.00D+00.
 Generated NRdTot=       0 NPtTot=           0 NUsed=           0 NTot=          32
 NSgBfM=    34    34    34    34    34 MxSgAt=     4 MxSgA2=     4.
 Leave Link  302 at Fri Mar 20 15:33:16 2026, MaxMem=   536870912 cpu:         0.0
 (Enter C:\G09W\l303.exe)
 DipDrv:  MaxL=1.
 Leave Link  303 at Fri Mar 20 15:33:16 2026, MaxMem=   536870912 cpu:         0.0
 (Enter C:\G09W\l401.exe)
 Initial guess from the checkpoint file:  "acetylene_ml.chk"
 B after Tr=     0.000000    0.000000    0.000000
         Rot=    1.000000    0.000000    0.000000    0.000000 Ang=   0.00 deg.
 Guess basis will be translated and rotated to current coordinates.
 JPrj=2 DoOrth=T DoCkMO=T.
 Initial guess orbital symmetries:
       Occupied  (SG) (SG) (SG) (SG) (SG) (PI) (PI)
       Virtual   (SG) (SG) (SG) (SG) (SG) (DLTA) (SG) (DLTA) (SG)
                 (SG) (SG) (SG) (SG) (SG) (SG) (DLTA) (DLTA) (PI)
                 (PI) (PI) (PI) (PI) (PI) (PI) (PI) (PI) (PI)
 The electronic state of the initial guess is 1-SG.
 Leave Link  401 at Fri Mar 20 15:33:16 2026, MaxMem=   536870912 cpu:         0.0
 (Enter C:\G09W\l502.exe)
 Closed shell SCF:
 Using DIIS extrapolation, IDIIS=  1040.
 Integral symmetry usage will be decided dynamically.
 Keep R1 ints in memory in symmetry-blocked form, NReq=1062384.
 IVT=       22528 IEndB=       22528 NGot=   536870912 MDV=   536792883
 LenX=   536792883 LenY=   536791286
 Requested convergence on RMS density matrix=1.00D-08 within 128 cycles.
 Requested convergence on MAX density matrix=1.00D-06.
 Requested convergence on             energy=1.00D-06.
 No special actions if energy rises.
 FoFCou: FMM=F IPFlag=           0 FMFlag=           0 FMFlg1=           0
         NFxFlg=           0 DoJE=F BraDBF=F KetDBF=F FulRan=T
         wScrn=  0.000000 ICntrl=     600 IOpCl=  0 I1Cent=           0 NGrid=           0
         NMat0=    1 NMatS0=    595 NMatT0=    0 NMatD0=    1 NMtDS0=    0 NMtDT0=    0
 Petite list used in FoFCou.

 Cycle   1  Pass 1  IDiag  1:
 E= -77.3256397418343    
 DIIS: error= 4.07D-04 at cycle   1 NSaved=   1.
 NSaved= 1 IEnMin= 1 EnMin= -77.3256397418343     IErMin= 1 ErrMin= 4.07D-04
 ErrMax= 4.07D-04  0.00D+00 EMaxC= 1.00D-01 BMatC= 4.60D-06 BMatP= 4.60D-06
 IDIUse=3 WtCom= 9.96D-01 WtEn= 4.07D-03
 Coeff-Com:  0.100D+01
 Coeff-En:   0.100D+01
 Coeff:      0.100D+01
 Gap=     1.507 Goal=   None    Shift=    0.000
 RMSDP=1.67D-04 MaxDP=1.29D-03              OVMax= 1.11D-03

 Cycle   2  Pass 1  IDiag  1:
 E= -77.3256429937470     Delta-E=       -0.000003251913 Rises=F Damp=F
 DIIS: error= 3.99D-04 at cycle   2 NSaved=   2.
 NSaved= 2 IEnMin= 2 EnMin= -77.3256429937470     IErMin= 2 ErrMin= 3.99D-04
 ErrMax= 3.99D-04  0.00D+00 EMaxC= 1.00D-01 BMatC= 2.81D-06 BMatP= 4.60D-06
 IDIUse=3 WtCom= 9.96D-01 WtEn= 3.99D-03
 Coeff-Com:  0.417D+00 0.583D+00
 Coeff-En:   0.138D+00 0.862D+00
 Coeff:      0.416D+00 0.584D+00
 Gap=     0.334 Goal=   None    Shift=    0.000
 RMSDP=7.05D-05 MaxDP=6.90D-04 DE=-3.25D-06 OVMax= 1.35D-03

 Cycle   3  Pass 1  IDiag  1:
 E= -77.3256431136938     Delta-E=       -0.000000119947 Rises=F Damp=F
 DIIS: error= 3.91D-04 at cycle   3 NSaved=   3.
 NSaved= 3 IEnMin= 3 EnMin= -77.3256431136938     IErMin= 3 ErrMin= 3.91D-04
 ErrMax= 3.91D-04  0.00D+00 EMaxC= 1.00D-01 BMatC= 2.69D-06 BMatP= 2.81D-06
 IDIUse=3 WtCom= 9.96D-01 WtEn= 3.91D-03
 Coeff-Com:  0.781D-01 0.476D+00 0.446D+00
 Coeff-En:   0.000D+00 0.492D+00 0.508D+00
 Coeff:      0.777D-01 0.476D+00 0.446D+00
 Gap=     0.334 Goal=   None    Shift=    0.000
 RMSDP=3.51D-05 MaxDP=3.45D-04 DE=-1.20D-07 OVMax= 6.86D-04

 Cycle   4  Pass 1  IDiag  1:
 E= -77.3256458853329     Delta-E=       -0.000002771639 Rises=F Damp=F
 DIIS: error= 8.04D-06 at cycle   4 NSaved=   4.
 NSaved= 4 IEnMin= 4 EnMin= -77.3256458853329     IErMin= 4 ErrMin= 8.04D-06
 ErrMax= 8.04D-06  0.00D+00 EMaxC= 1.00D-01 BMatC= 1.66D-09 BMatP= 2.69D-06
 IDIUse=1 WtCom= 1.00D+00 WtEn= 0.00D+00
 Coeff-Com: -0.639D-02 0.302D-01 0.449D-01 0.931D+00
 Coeff:     -0.639D-02 0.302D-01 0.449D-01 0.931D+00
 Gap=     0.334 Goal=   None    Shift=    0.000
 RMSDP=1.22D-06 MaxDP=9.87D-06 DE=-2.77D-06 OVMax= 1.42D-05

 Cycle   5  Pass 1  IDiag  1:
 E= -77.3256458868998     Delta-E=       -0.000000001567 Rises=F Damp=F
 DIIS: error= 1.65D-06 at cycle   5 NSaved=   5.
 NSaved= 5 IEnMin= 5 EnMin= -77.3256458868998     IErMin= 5 ErrMin= 1.65D-06
 ErrMax= 1.65D-06  0.00D+00 EMaxC= 1.00D-01 BMatC= 8.05D-11 BMatP= 1.66D-09
 IDIUse=1 WtCom= 1.00D+00 WtEn= 0.00D+00
 Coeff-Com: -0.161D-02 0.353D-02 0.988D-02 0.194D+00 0.794D+00
 Coeff:     -0.161D-02 0.353D-02 0.988D-02 0.194D+00 0.794D+00
 Gap=     0.334 Goal=   None    Shift=    0.000
 RMSDP=3.04D-07 MaxDP=2.78D-06 DE=-1.57D-09 OVMax= 3.79D-06

 Cycle   6  Pass 1  IDiag  1:
 E= -77.3256458869817     Delta-E=       -0.000000000082 Rises=F Damp=F
 DIIS: error= 6.50D-07 at cycle   6 NSaved=   6.
 NSaved= 6 IEnMin= 6 EnMin= -77.3256458869817     IErMin= 6 ErrMin= 6.50D-07
 ErrMax= 6.50D-07  0.00D+00 EMaxC= 1.00D-01 BMatC= 9.32D-12 BMatP= 8.05D-11
 IDIUse=1 WtCom= 1.00D+00 WtEn= 0.00D+00
 Coeff-Com: -0.329D-03-0.876D-03 0.126D-02 0.242D-01 0.338D+00 0.638D+00
 Coeff:     -0.329D-03-0.876D-03 0.126D-02 0.242D-01 0.338D+00 0.638D+00
 Gap=     0.334 Goal=   None    Shift=    0.000
 RMSDP=8.53D-08 MaxDP=6.22D-07 DE=-8.18D-11 OVMax= 1.04D-06

 Cycle   7  Pass 1  IDiag  1:
 E= -77.3256458869921     Delta-E=       -0.000000000010 Rises=F Damp=F
 DIIS: error= 2.61D-08 at cycle   7 NSaved=   7.
 NSaved= 7 IEnMin= 7 EnMin= -77.3256458869921     IErMin= 7 ErrMin= 2.61D-08
 ErrMax= 2.61D-08  0.00D+00 EMaxC= 1.00D-01 BMatC= 1.29D-14 BMatP= 9.32D-12
 IDIUse=1 WtCom= 1.00D+00 WtEn= 0.00D+00
 Coeff-Com:  0.713D-05 0.111D-05-0.107D-03-0.123D-02-0.512D-02-0.437D-02
 Coeff-Com:  0.101D+01
 Coeff:      0.713D-05 0.111D-05-0.107D-03-0.123D-02-0.512D-02-0.437D-02
 Coeff:      0.101D+01
 Gap=     0.334 Goal=   None    Shift=    0.000
 RMSDP=3.70D-09 MaxDP=2.74D-08 DE=-1.04D-11 OVMax= 5.06D-08

 SCF Done:  E(RB3LYP) =  -77.3256458870     A.U. after    7 cycles
            NFock=  7  Conv=0.37D-08     -V/T= 2.0103
 KE= 7.653644969845D+01 PE=-2.284334172979D+02 EE= 4.985494523331D+01
 Leave Link  502 at Fri Mar 20 15:33:17 2026, MaxMem=   536870912 cpu:         1.0
 (Enter C:\G09W\l701.exe)
 Compute integral first derivatives.
 ... and contract with generalized density number  0.
 Leave Link  701 at Fri Mar 20 15:33:17 2026, MaxMem=   536870912 cpu:         0.0
 (Enter C:\G09W\l702.exe)
 L702 exits ... SP integral derivatives will be done elsewhere.
 Leave Link  702 at Fri Mar 20 15:33:18 2026, MaxMem=   536870912 cpu:         1.0
 (Enter C:\G09W\l703.exe)
 Compute integral first derivatives, UseDBF=F ICtDFT=           0.
 Integral derivatives from FoFJK, PRISM(SPDF).
 Calling FoFJK, ICntrl=      2127 FMM=F ISym2X=1 I1Cent= 0 IOpClX= 0 NMat=1 NMatS=1 NMatT=0.
 FoFJK:  IHMeth= 1 ICntrl=    2127 DoSepK=F KAlg= 0 I1Cent=   0 FoldK=F
 IRaf=         0 NMat=   1 IRICut=       1 DoRegI=T DoRafI=F ISym2E= 1.
 FoFCou: FMM=F IPFlag=           0 FMFlag=      100000 FMFlg1=         800
         NFxFlg=           0 DoJE=F BraDBF=F KetDBF=F FulRan=T
         wScrn=  0.000000 ICntrl=    2127 IOpCl=  0 I1Cent=           0 NGrid=           0
         NMat0=    1 NMatS0=      1 NMatT0=    0 NMatD0=    1 NMtDS0=    0 NMtDT0=    0
 Petite list used in FoFCou.
 Leave Link  703 at Fri Mar 20 15:33:18 2026, MaxMem=   536870912 cpu:         0.0
 (Enter C:\G09W\l716.exe)
 Dipole        =-5.60684095D-19 3.83881276D-18 1.96134438D-04
 ***** Axes restored to original set *****
 -------------------------------------------------------------------
 Center     Atomic                   Forces (Hartrees/Bohr)
 Number     Number              X              Y              Z
 -------------------------------------------------------------------
      1        6          -0.000268798    0.000027507    0.000004348
      2        6           0.000693822   -0.000071001   -0.000011224
      3        1           0.000046663   -0.000004775   -0.000000755
      4        1          -0.000471687    0.000048269    0.000007630
 -------------------------------------------------------------------
 Cartesian Forces:  Max     0.000693822 RMS     0.000256037
 Leave Link  716 at Fri Mar 20 15:33:18 2026, MaxMem=   536870912 cpu:         0.0
 (Enter C:\G09W\l103.exe)

 GradGradGradGradGradGradGradGradGradGradGradGradGradGradGradGradGradGrad
 Berny optimization.
 Using GEDIIS/GDIIS optimizer.
 FormGI is forming the generalized inverse of G from B-inverse, IUseBI=4.
 Internal  Forces:  Max     0.000474211 RMS     0.000198908
 Search for a local minimum.
 Step number   2 out of a maximum of   20
 All quantities printed in internal units (Hartrees-Bohrs-Radians)
 RMS Force = .19891D-03 SwitMx=.10000D-02 MixMth= 2
 Mixed Optimization -- En-DIIS/RFO-DIIS
 Update second derivatives using D2CorX and points    1    2
 DE= -2.54D-05 DEPred=-2.86D-05 R= 8.88D-01
 TightC=F SS=  1.41D+00  RLast= 1.21D-02 DXNew= 5.0454D-01 3.6215D-02
 Trust test= 8.88D-01 RLast= 1.21D-02 DXMaxT set to 3.00D-01
 The second derivative matrix:
                          R1        R2        R3        A1        A2
           R1           1.02804
           R2          -0.00162   0.37747
           R3          -0.01769   0.00371   0.42140
           A1           0.00000   0.00000   0.00000   0.00549
           A2           0.00000   0.00000   0.00000   0.00000   0.00620
           A3           0.00000   0.00000   0.00000   0.00000   0.00000
           A4           0.00000   0.00000   0.00000   0.00000   0.00000
                          A3        A4
           A3           0.00549
           A4           0.00000   0.00620
 ITU=  1  0
 Use linear search instead of GDIIS.
     Eigenvalues ---    0.00549   0.00549   0.00620   0.00620   0.37716
     Eigenvalues ---    0.42119   1.02856
 RFO step:  Lambda= 0.00000000D+00 EMin= 5.49397248D-03
 Quartic linear search produced a step of -0.09677.
 Iteration  1 RMS(Cart)=  0.00034456 RMS(Int)=  0.00000001
 Iteration  2 RMS(Cart)=  0.00000001 RMS(Int)=  0.00000001
 ITry= 1 IFail=0 DXMaxC= 7.76D-04 DCOld= 1.00D+10 DXMaxT= 3.00D-01 DXLimC= 3.00D+00 Rises=F
 ClnCor:  largest displacement from symmetrization is 2.16D-08 for atom     2.
 Variable       Old X    -DE/DX   Delta X   Delta X   Delta X     New X
                                 (Linear)    (Quad)   (Total)
    R1        2.27687   0.00022   0.00013   0.00006   0.00020   2.27707
    R2        2.01577  -0.00005  -0.00009  -0.00003  -0.00011   2.01566
    R3        2.01680  -0.00047  -0.00116   0.00002  -0.00113   2.01567
    A1        3.14159   0.00000   0.00000   0.00000   0.00000   3.14159
    A2        3.14159   0.00000   0.00000   0.00000   0.00000   3.14159
    A3        3.14159   0.00000   0.00000   0.00000   0.00000   3.14159
    A4        3.14159   0.00000   0.00000   0.00000   0.00000   3.14159
         Item               Value     Threshold  Converged?
 Maximum Force            0.000474     0.000450     NO 
 RMS     Force            0.000199     0.000300     YES
 Maximum Displacement     0.000776     0.001800     YES
 RMS     Displacement     0.000345     0.001200     YES
 Predicted change in Energy=-2.892768D-07
 Lowest energy point so far.  Saving SCF results.
 GradGradGradGradGradGradGradGradGradGradGradGradGradGradGradGradGradGrad

 Leave Link  103 at Fri Mar 20 15:33:18 2026, MaxMem=   536870912 cpu:         0.0
 (Enter C:\G09W\l202.exe)
                          Input orientation:                          
 ---------------------------------------------------------------------
 Center     Atomic      Atomic             Coordinates (Angstroms)
 Number     Number       Type             X           Y           Z
 ---------------------------------------------------------------------
      1          6           0       -0.597961    0.253732    0.009673
      2          6           0        0.600594    0.131079   -0.009716
      3          1           0       -1.658923    0.362304    0.026836
      4          1           0        1.661560    0.022507   -0.026879
 ---------------------------------------------------------------------
                    Distance matrix (angstroms):
                    1          2          3          4
     1  C    0.000000
     2  C    1.204971   0.000000
     3  H    1.066641   2.271612   0.000000
     4  H    2.271615   1.066644   3.338256   0.000000
 Stoichiometry    C2H2
 Framework group  C*V[C*(HCCH)]
 Deg. of freedom     3
 Full point group                 C*V     NOp   4
 RotChk:  IX=2 Diff= 3.50D-16
 Largest Abelian subgroup         C2V     NOp   4
 Largest concise Abelian subgroup C1      NOp   1
                         Standard orientation:                         
 ---------------------------------------------------------------------
 Center     Atomic      Atomic             Coordinates (Angstroms)
 Number     Number       Type             X           Y           Z
 ---------------------------------------------------------------------
      1          6           0        0.000000    0.000000   -0.602486
      2          6           0        0.000000    0.000000    0.602485
      3          1           0        0.000000    0.000000   -1.669127
      4          1           0        0.000000    0.000000    1.669130
 ---------------------------------------------------------------------
 Rotational constants (GHZ):      0.0000000     35.2738201     35.2738201
 Leave Link  202 at Fri Mar 20 15:33:18 2026, MaxMem=   536870912 cpu:         0.0
 (Enter C:\G09W\l301.exe)
 Standard basis: 6-31G(d) (6D, 7F)
 Ernie: Thresh=  0.10000D-02 Tol=  0.10000D-05 Strict=F.
 There are    20 symmetry adapted cartesian basis functions of A1  symmetry.
 There are     2 symmetry adapted cartesian basis functions of A2  symmetry.
 There are     6 symmetry adapted cartesian basis functions of B1  symmetry.
 There are     6 symmetry adapted cartesian basis functions of B2  symmetry.
 There are    20 symmetry adapted basis functions of A1  symmetry.
 There are     2 symmetry adapted basis functions of A2  symmetry.
 There are     6 symmetry adapted basis functions of B1  symmetry.
 There are     6 symmetry adapted basis functions of B2  symmetry.
    34 basis functions,    64 primitive gaussians,    34 cartesian basis functions
     7 alpha electrons        7 beta electrons
       nuclear repulsion energy        24.7171446212 Hartrees.
 IExCor=  402 DFT=T Ex+Corr=B3LYP ExCW=0 ScaHFX=  0.200000
 ScaDFX=  0.800000  0.720000  1.000000  0.810000 ScalE2=  1.000000  1.000000
 IRadAn=      0 IRanWt=     -1 IRanGd=            0 ICorTp=0 IEmpDi=  4
 NAtoms=    4 NActive=    4 NUniq=    4 SFac= 1.00D+00 NAtFMM=   60 NAOKFM=F Big=F
 Integral buffers will be    131072 words long.
 Raffenetti 2 integral format.
 Two-electron integral symmetry is turned on.
 Leave Link  301 at Fri Mar 20 15:33:18 2026, MaxMem=   536870912 cpu:         0.0
 (Enter C:\G09W\l302.exe)
 NPDir=0 NMtPBC=     1 NCelOv=     1 NCel=       1 NClECP=     1 NCelD=      1
         NCelK=      1 NCelE2=     1 NClLst=     1 CellRange=     0.0.
 One-electron integrals computed using PRISM.
 NBasis=    34 RedAO= T EigKep=  2.05D-03  NBF=    20     2     6     6
 NBsUse=    34 1.00D-06 EigRej= -1.00D+00 NBFU=    20     2     6     6
 Precomputing XC quadrature grid using
 IXCGrd= 4 IRadAn=           0 IRanWt=          -1 IRanGd=           0 AccXCQ= 0.00D+00.
 Generated NRdTot=       0 NPtTot=           0 NUsed=           0 NTot=          32
 NSgBfM=    34    34    34    34    34 MxSgAt=     4 MxSgA2=     4.
 Leave Link  302 at Fri Mar 20 15:33:19 2026, MaxMem=   536870912 cpu:         1.0
 (Enter C:\G09W\l303.exe)
 DipDrv:  MaxL=1.
 Leave Link  303 at Fri Mar 20 15:33:19 2026, MaxMem=   536870912 cpu:         0.0
 (Enter C:\G09W\l401.exe)
 Initial guess from the checkpoint file:  "acetylene_ml.chk"
 B after Tr=     0.000000    0.000000    0.000000
         Rot=    1.000000    0.000000    0.000000    0.000000 Ang=   0.00 deg.
 Guess basis will be translated and rotated to current coordinates.
 JPrj=2 DoOrth=T DoCkMO=T.
 Initial guess orbital symmetries:
       Occupied  (SG) (SG) (SG) (SG) (SG) (PI) (PI)
       Virtual   (SG) (SG) (SG) (SG) (SG) (DLTA) (SG) (DLTA) (SG)
                 (SG) (SG) (SG) (SG) (SG) (SG) (DLTA) (DLTA) (PI)
                 (PI) (PI) (PI) (PI) (PI) (PI) (PI) (PI) (PI)
 The electronic state of the initial guess is 1-SG.
 Leave Link  401 at Fri Mar 20 15:33:19 2026, MaxMem=   536870912 cpu:         0.0
 (Enter C:\G09W\l502.exe)
 Closed shell SCF:
 Using DIIS extrapolation, IDIIS=  1040.
 Integral symmetry usage will be decided dynamically.
 Keep R1 ints in memory in symmetry-blocked form, NReq=1062384.
 IVT=       22528 IEndB=       22528 NGot=   536870912 MDV=   536792883
 LenX=   536792883 LenY=   536791286
 Requested convergence on RMS density matrix=1.00D-08 within 128 cycles.
 Requested convergence on MAX density matrix=1.00D-06.
 Requested convergence on             energy=1.00D-06.
 No special actions if energy rises.
 FoFCou: FMM=F IPFlag=           0 FMFlag=           0 FMFlg1=           0
         NFxFlg=           0 DoJE=F BraDBF=F KetDBF=F FulRan=T
         wScrn=  0.000000 ICntrl=     600 IOpCl=  0 I1Cent=           0 NGrid=           0
         NMat0=    1 NMatS0=    595 NMatT0=    0 NMatD0=    1 NMtDS0=    0 NMtDT0=    0
 Petite list used in FoFCou.

 Cycle   1  Pass 1  IDiag  1:
 E= -77.3256461227953    
 DIIS: error= 3.90D-05 at cycle   1 NSaved=   1.
 NSaved= 1 IEnMin= 1 EnMin= -77.3256461227953     IErMin= 1 ErrMin= 3.90D-05
 ErrMax= 3.90D-05  0.00D+00 EMaxC= 1.00D-01 BMatC= 4.30D-08 BMatP= 4.30D-08
 IDIUse=1 WtCom= 1.00D+00 WtEn= 0.00D+00
 Coeff-Com:  0.100D+01
 Coeff:      0.100D+01
 Gap=     1.506 Goal=   None    Shift=    0.000
 RMSDP=1.57D-05 MaxDP=1.21D-04              OVMax= 1.05D-04

 Cycle   2  Pass 1  IDiag  1:
 E= -77.3256461556969     Delta-E=       -0.000000032902 Rises=F Damp=F
 DIIS: error= 3.68D-05 at cycle   2 NSaved=   2.
 NSaved= 2 IEnMin= 2 EnMin= -77.3256461556969     IErMin= 2 ErrMin= 3.68D-05
 ErrMax= 3.68D-05  0.00D+00 EMaxC= 1.00D-01 BMatC= 2.43D-08 BMatP= 4.30D-08
 IDIUse=1 WtCom= 1.00D+00 WtEn= 0.00D+00
 Coeff-Com:  0.405D+00 0.595D+00
 Coeff:      0.405D+00 0.595D+00
 Gap=     0.334 Goal=   None    Shift=    0.000
 RMSDP=6.64D-06 MaxDP=6.30D-05 DE=-3.29D-08 OVMax= 1.27D-04

 Cycle   3  Pass 1  IDiag  1:
 E= -77.3256461551050     Delta-E=        0.000000000592 Rises=F Damp=F
 DIIS: error= 3.75D-05 at cycle   3 NSaved=   3.
 NSaved= 3 IEnMin= 2 EnMin= -77.3256461556969     IErMin= 2 ErrMin= 3.68D-05
 ErrMax= 3.75D-05  0.00D+00 EMaxC= 1.00D-01 BMatC= 2.46D-08 BMatP= 2.43D-08
 IDIUse=1 WtCom= 1.00D+00 WtEn= 0.00D+00
 Coeff-Com:  0.830D-01 0.482D+00 0.435D+00
 Coeff:      0.830D-01 0.482D+00 0.435D+00
 Gap=     0.334 Goal=   None    Shift=    0.000
 RMSDP=3.38D-06 MaxDP=3.29D-05 DE= 5.92D-10 OVMax= 6.61D-05

 Cycle   4  Pass 1  IDiag  1:
 E= -77.3256461805008     Delta-E=       -0.000000025396 Rises=F Damp=F
 DIIS: error= 9.28D-07 at cycle   4 NSaved=   4.
 NSaved= 4 IEnMin= 4 EnMin= -77.3256461805008     IErMin= 4 ErrMin= 9.28D-07
 ErrMax= 9.28D-07  0.00D+00 EMaxC= 1.00D-01 BMatC= 2.69D-11 BMatP= 2.43D-08
 IDIUse=1 WtCom= 1.00D+00 WtEn= 0.00D+00
 Coeff-Com: -0.525D-02 0.393D-01 0.572D-01 0.909D+00
 Coeff:     -0.525D-02 0.393D-01 0.572D-01 0.909D+00
 Gap=     0.334 Goal=   None    Shift=    0.000
 RMSDP=1.63D-07 MaxDP=1.30D-06 DE=-2.54D-08 OVMax= 1.79D-06

 Cycle   5  Pass 1  IDiag  1:
 E= -77.3256461805230     Delta-E=       -0.000000000022 Rises=F Damp=F
 DIIS: error= 3.82D-07 at cycle   5 NSaved=   5.
 NSaved= 5 IEnMin= 5 EnMin= -77.3256461805230     IErMin= 5 ErrMin= 3.82D-07
 ErrMax= 3.82D-07  0.00D+00 EMaxC= 1.00D-01 BMatC= 3.56D-12 BMatP= 2.69D-11
 IDIUse=1 WtCom= 1.00D+00 WtEn= 0.00D+00
 Coeff-Com: -0.322D-02 0.763D-02 0.179D-01 0.373D+00 0.604D+00
 Coeff:     -0.322D-02 0.763D-02 0.179D-01 0.373D+00 0.604D+00
 Gap=     0.334 Goal=   None    Shift=    0.000
 RMSDP=5.49D-08 MaxDP=3.84D-07 DE=-2.22D-11 OVMax= 6.85D-07

 Cycle   6  Pass 1  IDiag  1:
 E= -77.3256461805266     Delta-E=       -0.000000000004 Rises=F Damp=F
 DIIS: error= 5.83D-08 at cycle   6 NSaved=   6.
 NSaved= 6 IEnMin= 6 EnMin= -77.3256461805266     IErMin= 6 ErrMin= 5.83D-08
 ErrMax= 5.83D-08  0.00D+00 EMaxC= 1.00D-01 BMatC= 8.09D-14 BMatP= 3.56D-12
 IDIUse=1 WtCom= 1.00D+00 WtEn= 0.00D+00
 Coeff-Com: -0.311D-03-0.866D-03 0.137D-02 0.227D-01 0.110D+00 0.867D+00
 Coeff:     -0.311D-03-0.866D-03 0.137D-02 0.227D-01 0.110D+00 0.867D+00
 Gap=     0.334 Goal=   None    Shift=    0.000
 RMSDP=8.56D-09 MaxDP=8.65D-08 DE=-3.61D-12 OVMax= 1.27D-07

 SCF Done:  E(RB3LYP) =  -77.3256461805     A.U. after    6 cycles
            NFock=  6  Conv=0.86D-08     -V/T= 2.0103
 KE= 7.653695798874D+01 PE=-2.284350588737D+02 EE= 4.985531008319D+01
 Leave Link  502 at Fri Mar 20 15:33:20 2026, MaxMem=   536870912 cpu:         1.0
 (Enter C:\G09W\l701.exe)
 Compute integral first derivatives.
 ... and contract with generalized density number  0.
 Leave Link  701 at Fri Mar 20 15:33:20 2026, MaxMem=   536870912 cpu:         0.0
 (Enter C:\G09W\l702.exe)
 L702 exits ... SP integral derivatives will be done elsewhere.
 Leave Link  702 at Fri Mar 20 15:33:20 2026, MaxMem=   536870912 cpu:         0.0
 (Enter C:\G09W\l703.exe)
 Compute integral first derivatives, UseDBF=F ICtDFT=           0.
 Integral derivatives from FoFJK, PRISM(SPDF).
 Calling FoFJK, ICntrl=      2127 FMM=F ISym2X=1 I1Cent= 0 IOpClX= 0 NMat=1 NMatS=1 NMatT=0.
 FoFJK:  IHMeth= 1 ICntrl=    2127 DoSepK=F KAlg= 0 I1Cent=   0 FoldK=F
 IRaf=         0 NMat=   1 IRICut=       1 DoRegI=T DoRafI=F ISym2E= 1.
 FoFCou: FMM=F IPFlag=           0 FMFlag=      100000 FMFlg1=         800
         NFxFlg=           0 DoJE=F BraDBF=F KetDBF=F FulRan=T
         wScrn=  0.000000 ICntrl=    2127 IOpCl=  0 I1Cent=           0 NGrid=           0
         NMat0=    1 NMatS0=      1 NMatT0=    0 NMatD0=    1 NMtDS0=    0 NMtDT0=    0
 Petite list used in FoFCou.
 Leave Link  703 at Fri Mar 20 15:33:20 2026, MaxMem=   536870912 cpu:         0.0
 (Enter C:\G09W\l716.exe)
 Dipole        =-1.67277855D-18-7.14424808D-18 1.34246587D-06
 ***** Axes restored to original set *****
 -------------------------------------------------------------------
 Center     Atomic                   Forces (Hartrees/Bohr)
 Number     Number              X              Y              Z
 -------------------------------------------------------------------
      1        6           0.000010153   -0.000001039   -0.000000164
      2        6          -0.000007358    0.000000753    0.000000119
      3        1          -0.000001850    0.000000189    0.000000030
      4        1          -0.000000945    0.000000097    0.000000015
 -------------------------------------------------------------------
 Cartesian Forces:  Max     0.000010153 RMS     0.000003689
 Leave Link  716 at Fri Mar 20 15:33:20 2026, MaxMem=   536870912 cpu:         0.0
 (Enter C:\G09W\l103.exe)

 GradGradGradGradGradGradGradGradGradGradGradGradGradGradGradGradGradGrad
 Berny optimization.
 Using GEDIIS/GDIIS optimizer.
 FormGI is forming the generalized inverse of G from B-inverse, IUseBI=4.
 Internal  Forces:  Max     0.000008348 RMS     0.000003253
 Search for a local minimum.
 Step number   3 out of a maximum of   20
 All quantities printed in internal units (Hartrees-Bohrs-Radians)
 RMS Force = .32525D-05 SwitMx=.10000D-02 MixMth= 2
 Mixed Optimization -- En-DIIS/RFO-DIIS
 Swapping is turned off.
 Update second derivatives using D2CorX and points    1    3
 DE= -2.94D-07 DEPred=-2.89D-07 R= 1.01D+00
 Trust test= 1.01D+00 RLast= 1.16D-03 DXMaxT set to 3.00D-01
 The second derivative matrix:
                          R1        R2        R3        A1        A2
           R1           1.02757
           R2          -0.00152   0.37745
           R3          -0.01706   0.00361   0.42228
           A1           0.00000   0.00000   0.00000   0.00549
           A2           0.00000   0.00000   0.00000   0.00000   0.00620
           A3           0.00000   0.00000   0.00000   0.00000   0.00000
           A4           0.00000   0.00000   0.00000   0.00000   0.00000
                          A3        A4
           A3           0.00549
           A4           0.00000   0.00620
 ITU=  0  1  0
     Eigenvalues ---    0.00549   0.00549   0.00620   0.00620   0.37716
     Eigenvalues ---    0.42208   1.02805
 En-DIIS/RFO-DIIS IScMMF=        0 using points:     3    2
 RFO step:  Lambda= 0.00000000D+00.
 NNeg= 0 NP= 2 Switch=  2.50D-03 Rises=F DC=  2.94D-07 SmlDif=  1.00D-05
 RMS Error=  0.3375647210D-05 NUsed= 2 EDIIS=F
 DidBck=F Rises=F RFO-DIIS coefs:    0.99847    0.00153
 Iteration  1 RMS(Cart)=  0.00000303 RMS(Int)=  0.00000000
 Iteration  2 RMS(Cart)=  0.00000000 RMS(Int)=  0.00000001
 ITry= 1 IFail=0 DXMaxC= 5.92D-06 DCOld= 1.00D+10 DXMaxT= 3.00D-01 DXLimC= 3.00D+00 Rises=F
 ClnCor:  largest displacement from symmetrization is 5.36D-11 for atom     1.
 Variable       Old X    -DE/DX   Delta X   Delta X   Delta X     New X
                                 (Linear)    (Quad)   (Total)
    R1        2.27707  -0.00001   0.00000  -0.00001  -0.00001   2.27706
    R2        2.01566   0.00000   0.00000   0.00000   0.00000   2.01566
    R3        2.01567   0.00000   0.00000   0.00000   0.00000   2.01566
    A1        3.14159   0.00000   0.00000   0.00000   0.00000   3.14159
    A2        3.14159   0.00000   0.00000   0.00000   0.00000   3.14159
    A3        3.14159   0.00000   0.00000   0.00000   0.00000   3.14159
    A4        3.14159   0.00000   0.00000   0.00000   0.00000   3.14159
         Item               Value     Threshold  Converged?
 Maximum Force            0.000008     0.000450     YES
 RMS     Force            0.000003     0.000300     YES
 Maximum Displacement     0.000006     0.001800     YES
 RMS     Displacement     0.000003     0.001200     YES
 Predicted change in Energy=-3.988213D-11
 Optimization completed.
    -- Stationary point found.
                           ----------------------------
                           !   Optimized Parameters   !
                           ! (Angstroms and Degrees)  !
 --------------------------                            --------------------------
 ! Name  Definition              Value          Derivative Info.                !
 --------------------------------------------------------------------------------
 ! R1    R(1,2)                  1.205          -DE/DX =    0.0                 !
 ! R2    R(1,3)                  1.0666         -DE/DX =    0.0                 !
 ! R3    R(2,4)                  1.0666         -DE/DX =    0.0                 !
 ! A1    L(2,1,3,-3,-1)        180.0            -DE/DX =    0.0                 !
 ! A2    L(1,2,4,-3,-1)        180.0            -DE/DX =    0.0                 !
 ! A3    L(2,1,3,-2,-2)        180.0            -DE/DX =    0.0                 !
 ! A4    L(1,2,4,-2,-2)        180.0            -DE/DX =    0.0                 !
 --------------------------------------------------------------------------------
 Lowest energy point so far.  Saving SCF results.
 GradGradGradGradGradGradGradGradGradGradGradGradGradGradGradGradGradGrad

 Largest change from initial coordinates is atom    4       0.005 Angstoms.
 Leave Link  103 at Fri Mar 20 15:33:21 2026, MaxMem=   536870912 cpu:         1.0
 (Enter C:\G09W\l202.exe)
                          Input orientation:                          
 ---------------------------------------------------------------------
 Center     Atomic      Atomic             Coordinates (Angstroms)
 Number     Number       Type             X           Y           Z
 ---------------------------------------------------------------------
      1          6           0       -0.597961    0.253732    0.009673
      2          6           0        0.600594    0.131079   -0.009716
      3          1           0       -1.658923    0.362304    0.026836
      4          1           0        1.661560    0.022507   -0.026879
 ---------------------------------------------------------------------
                    Distance matrix (angstroms):
                    1          2          3          4
     1  C    0.000000
     2  C    1.204971   0.000000
     3  H    1.066641   2.271612   0.000000
     4  H    2.271615   1.066644   3.338256   0.000000
 Stoichiometry    C2H2
 Framework group  C*V[C*(HCCH)]
 Deg. of freedom     3
 Full point group                 C*V     NOp   4
 RotChk:  IX=2 Diff= 3.88D-16
 Largest Abelian subgroup         C2V     NOp   4
 Largest concise Abelian subgroup C1      NOp   1
                         Standard orientation:                         
 ---------------------------------------------------------------------
 Center     Atomic      Atomic             Coordinates (Angstroms)
 Number     Number       Type             X           Y           Z
 ---------------------------------------------------------------------
      1          6           0        0.000000    0.000000   -0.602486
      2          6           0        0.000000    0.000000    0.602485
      3          1           0        0.000000    0.000000   -1.669127
      4          1           0        0.000000    0.000000    1.669130
 ---------------------------------------------------------------------
 Rotational constants (GHZ):      0.0000000     35.2738201     35.2738201
 Leave Link  202 at Fri Mar 20 15:33:21 2026, MaxMem=   536870912 cpu:         0.0
 (Enter C:\G09W\l601.exe)
 Copying SCF densities to generalized density rwf, IOpCl= 0 IROHF=0.

 **********************************************************************

            Population analysis using the SCF density.

 **********************************************************************

 Orbital symmetries:
       Occupied  (SG) (SG) (SG) (SG) (SG) (PI) (PI)
       Virtual   (PI) (PI) (SG) (SG) (SG) (SG) (PI) (PI) (PI) (PI)
                 (SG) (SG) (SG) (SG) (SG) (PI) (PI) (DLTA) (DLTA)
                 (DLTA) (DLTA) (SG) (PI) (PI) (SG) (SG) (SG)
 The electronic state is 1-SG.
 Alpha  occ. eigenvalues --  -10.19217 -10.18976  -0.74262  -0.56539  -0.49158
 Alpha  occ. eigenvalues --   -0.28193  -0.28193
 Alpha virt. eigenvalues --    0.05243   0.05243   0.10558   0.14883   0.42673
 Alpha virt. eigenvalues --    0.47082   0.53292   0.53292   0.65425   0.65425
 Alpha virt. eigenvalues --    0.74675   0.82440   1.02846   1.21766   1.50514
 Alpha virt. eigenvalues --    1.50643   1.50643   1.54918   1.54918   1.94365
 Alpha virt. eigenvalues --    1.94365   2.43195   2.48719   2.48719   3.19107
 Alpha virt. eigenvalues --    4.13473   4.32924
          Condensed to atoms (all electrons):
               1          2          3          4
     1  C    4.878279   0.984326   0.357837  -0.032130
     2  C    0.984326   4.878281  -0.032131   0.357836
     3  H    0.357837  -0.032131   0.484017   0.001965
     4  H   -0.032130   0.357836   0.001965   0.484016
 Mulliken charges:
               1
     1  C   -0.188312
     2  C   -0.188312
     3  H    0.188311
     4  H    0.188313
 Sum of Mulliken charges =   0.00000
 Mulliken charges with hydrogens summed into heavy atoms:
               1
     1  C   -0.000001
     2  C    0.000001
 Electronic spatial extent (au):  <R**2>=             59.8480
 Charge=              0.0000 electrons
 Dipole moment (field-independent basis, Debye):
    X=              0.0000    Y=              0.0000    Z=              0.0000  Tot=              0.0000
 Quadrupole moment (field-independent basis, Debye-Ang):
   XX=            -13.0251   YY=            -13.0251   ZZ=             -6.7619
   XY=              0.0000   XZ=              0.0000   YZ=              0.0000
 Traceless Quadrupole moment (field-independent basis, Debye-Ang):
   XX=             -2.0877   YY=             -2.0877   ZZ=              4.1755
   XY=              0.0000   XZ=              0.0000   YZ=              0.0000
 Octapole moment (field-independent basis, Debye-Ang**2):
  XXX=              0.0000  YYY=              0.0000  ZZZ=              0.0000  XYY=              0.0000
  XXY=              0.0000  XXZ=              0.0000  XZZ=              0.0000  YZZ=              0.0000
  YYZ=              0.0000  XYZ=              0.0000
 Hexadecapole moment (field-independent basis, Debye-Ang**3):
 XXXX=            -13.3542 YYYY=            -13.3542 ZZZZ=            -37.9601 XXXY=              0.0000
 XXXZ=              0.0000 YYYX=              0.0000 YYYZ=              0.0000 ZZZX=              0.0000
 ZZZY=              0.0000 XXYY=             -4.4514 XXZZ=            -11.6083 YYZZ=            -11.6083
 XXYZ=              0.0000 YYXZ=              0.0000 ZZXY=              0.0000
 N-N= 2.471714462124D+01 E-N=-2.284350575898D+02  KE= 7.653695798874D+01
 Symmetry A1   KE= 7.210055127760D+01
 Symmetry A2   KE= 7.726518639074D-35
 Symmetry B1   KE= 2.218203355572D+00
 Symmetry B2   KE= 2.218203355572D+00
 No NMR shielding tensors so no spin-rotation constants.
 Leave Link  601 at Fri Mar 20 15:33:21 2026, MaxMem=   536870912 cpu:         0.0
 (Enter C:\G09W\l9999.exe)
 1|1|UNPC-DESKTOP-GS7R1K3|FOpt|RB3LYP|6-31G(d)|C2H2|1172|20-Mar-2026|0|
 |#p opt freq B3LYP/6-31G(d)||acetylene ml-corrected||0,1|C,-0.59796129
 71,0.2537319699,0.0096732557|C,0.6005944861,0.1310792541,-0.0097157559
 |H,-1.6589230488,0.3623041716,0.0268364115|H,1.6615597815,0.0225066897
 ,-0.026878969||Version=EM64W-G09RevD.01|State=1-SG|HF=-77.3256462|RMSD
 =8.562e-009|RMSF=3.689e-006|Dipole=0.0000013,-0.0000001,0.|Quadrupole=
 3.0549005,-1.50393,-1.5509705,-0.4714595,-0.0745286,0.0076268|PG=C*V [
 C*(H1C1C1H1)]||@


 ROSE IS A RED
 TY COBB IS BLUE
 'CAUSE PETE JUST HIT
 NO. 4592.
 Leave Link 9999 at Fri Mar 20 15:33:21 2026, MaxMem=   536870912 cpu:         0.0
 Job cpu time:       0 days  0 hours  0 minutes  9.0 seconds.
 File lengths (MBytes):  RWF=      5 Int=      0 D2E=      0 Chk=      1 Scr=      1
 Normal termination of Gaussian 09 at Fri Mar 20 15:33:21 2026.
 (Enter C:\G09W\l1.exe)
 Link1:  Proceeding to internal job step number  2.
 --------------------------------------------------------------------
 #P Geom=AllCheck Guess=TCheck SCRF=Check GenChk RB3LYP/6-31G(d) Freq
 --------------------------------------------------------------------
 1/10=4,29=7,30=1,38=1,40=1/1,3;
 2/12=2,40=1/2;
 3/5=1,6=6,7=1,11=2,14=-4,16=1,25=1,30=1,70=2,71=2,74=-5,116=1,140=1/1,2,3;
 4/5=101/1;
 5/5=2,98=1/2;
 8/6=4,10=90,11=11/1;
 11/6=1,8=1,9=11,15=111,16=1/1,2,10;
 10/6=1/2;
 6/7=2,8=2,9=2,10=2,18=1,28=1/1;
 7/8=1,10=1,25=1/1,2,3,16;
 1/10=4,30=1/3;
 99//99;
 Leave Link    1 at Fri Mar 20 15:33:21 2026, MaxMem=   536870912 cpu:         0.0
 (Enter C:\G09W\l101.exe)
 Structure from the checkpoint file:  "acetylene_ml.chk"
 ----------------------
 acetylene ml-corrected
 ----------------------
 Charge =  0 Multiplicity = 1
 Redundant internal coordinates found in file.
 C,0,-0.5979612971,0.2537319699,0.0096732557
 C,0,0.6005944861,0.1310792541,-0.0097157559
 H,0,-1.6589230488,0.3623041716,0.0268364115
 H,0,1.6615597815,0.0225066897,-0.026878969
 Recover connectivity data from disk.
 NAtoms=      4 NQM=        4 NQMF=       0 NMMI=      0 NMMIF=      0
                NMic=       0 NMicF=      0.
                    Isotopes and Nuclear Properties:
 (Nuclear quadrupole moments (NQMom) in fm**2, nuclear magnetic moments (NMagM)
  in nuclear magnetons)

  Atom         1           2           3           4
 IAtWgt=          12          12           1           1
 AtmWgt=  12.0000000  12.0000000   1.0078250   1.0078250
 NucSpn=           0           0           1           1
 AtZEff=  -3.6000000  -3.6000000  -1.0000000  -1.0000000
 NQMom=    0.0000000   0.0000000   0.0000000   0.0000000
 NMagM=    0.0000000   0.0000000   2.7928460   2.7928460
 AtZNuc=   6.0000000   6.0000000   1.0000000   1.0000000
 Leave Link  101 at Fri Mar 20 15:33:22 2026, MaxMem=   536870912 cpu:         0.0
 (Enter C:\G09W\l103.exe)

 GradGradGradGradGradGradGradGradGradGradGradGradGradGradGradGradGradGrad
 Berny optimization.
 Initialization pass.
                           ----------------------------
                           !    Initial Parameters    !
                           ! (Angstroms and Degrees)  !
 --------------------------                            --------------------------
 ! Name  Definition              Value          Derivative Info.                !
 --------------------------------------------------------------------------------
 ! R1    R(1,2)                  1.205          calculate D2E/DX2 analytically  !
 ! R2    R(1,3)                  1.0666         calculate D2E/DX2 analytically  !
 ! R3    R(2,4)                  1.0666         calculate D2E/DX2 analytically  !
 ! A1    L(2,1,3,-3,-1)        180.0            calculate D2E/DX2 analytically  !
 ! A2    L(1,2,4,-3,-1)        180.0            calculate D2E/DX2 analytically  !
 ! A3    L(2,1,3,-2,-2)        180.0            calculate D2E/DX2 analytically  !
 ! A4    L(1,2,4,-2,-2)        180.0            calculate D2E/DX2 analytically  !
 --------------------------------------------------------------------------------
 Trust Radius=3.00D-01 FncErr=1.00D-07 GrdErr=1.00D-07
 Number of steps in this run=      2 maximum allowed number of steps=      2.
 GradGradGradGradGradGradGradGradGradGradGradGradGradGradGradGradGradGrad

 Leave Link  103 at Fri Mar 20 15:33:22 2026, MaxMem=   536870912 cpu:         0.0
 (Enter C:\G09W\l202.exe)
                          Input orientation:                          
 ---------------------------------------------------------------------
 Center     Atomic      Atomic             Coordinates (Angstroms)
 Number     Number       Type             X           Y           Z
 ---------------------------------------------------------------------
      1          6           0       -0.597961    0.253732    0.009673
      2          6           0        0.600594    0.131079   -0.009716
      3          1           0       -1.658923    0.362304    0.026836
      4          1           0        1.661560    0.022507   -0.026879
 ---------------------------------------------------------------------
                    Distance matrix (angstroms):
                    1          2          3          4
     1  C    0.000000
     2  C    1.204971   0.000000
     3  H    1.066641   2.271612   0.000000
     4  H    2.271615   1.066644   3.338256   0.000000
 Stoichiometry    C2H2
 Framework group  C*V[C*(HCCH)]
 Deg. of freedom     3
 Full point group                 C*V     NOp   4
 RotChk:  IX=2 Diff= 3.31D-16
 Largest Abelian subgroup         C2V     NOp   4
 Largest concise Abelian subgroup C1      NOp   1
                         Standard orientation:                         
 ---------------------------------------------------------------------
 Center     Atomic      Atomic             Coordinates (Angstroms)
 Number     Number       Type             X           Y           Z
 ---------------------------------------------------------------------
      1          6           0        0.000000    0.000000   -0.602486
      2          6           0        0.000000    0.000000    0.602485
      3          1           0        0.000000    0.000000   -1.669127
      4          1           0        0.000000    0.000000    1.669130
 ---------------------------------------------------------------------
 Rotational constants (GHZ):      0.0000000     35.2738201     35.2738201
 Leave Link  202 at Fri Mar 20 15:33:22 2026, MaxMem=   536870912 cpu:         0.0
 (Enter C:\G09W\l301.exe)
 Standard basis: 6-31G(d) (6D, 7F)
 Ernie: Thresh=  0.10000D-02 Tol=  0.10000D-05 Strict=F.
 There are    20 symmetry adapted cartesian basis functions of A1  symmetry.
 There are     2 symmetry adapted cartesian basis functions of A2  symmetry.
 There are     6 symmetry adapted cartesian basis functions of B1  symmetry.
 There are     6 symmetry adapted cartesian basis functions of B2  symmetry.
 There are    20 symmetry adapted basis functions of A1  symmetry.
 There are     2 symmetry adapted basis functions of A2  symmetry.
 There are     6 symmetry adapted basis functions of B1  symmetry.
 There are     6 symmetry adapted basis functions of B2  symmetry.
    34 basis functions,    64 primitive gaussians,    34 cartesian basis functions
     7 alpha electrons        7 beta electrons
       nuclear repulsion energy        24.7171446212 Hartrees.
 IExCor=  402 DFT=T Ex+Corr=B3LYP ExCW=0 ScaHFX=  0.200000
 ScaDFX=  0.800000  0.720000  1.000000  0.810000 ScalE2=  1.000000  1.000000
 IRadAn=      0 IRanWt=     -1 IRanGd=            0 ICorTp=0 IEmpDi=  4
 NAtoms=    4 NActive=    4 NUniq=    4 SFac= 1.00D+00 NAtFMM=   60 NAOKFM=F Big=F
 Integral buffers will be    131072 words long.
 Raffenetti 2 integral format.
 Two-electron integral symmetry is turned on.
 Leave Link  301 at Fri Mar 20 15:33:22 2026, MaxMem=   536870912 cpu:         0.0
 (Enter C:\G09W\l302.exe)
 NPDir=0 NMtPBC=     1 NCelOv=     1 NCel=       1 NClECP=     1 NCelD=      1
         NCelK=      1 NCelE2=     1 NClLst=     1 CellRange=     0.0.
 One-electron integrals computed using PRISM.
 NBasis=    34 RedAO= T EigKep=  2.05D-03  NBF=    20     2     6     6
 NBsUse=    34 1.00D-06 EigRej= -1.00D+00 NBFU=    20     2     6     6
 Precomputing XC quadrature grid using
 IXCGrd= 4 IRadAn=           0 IRanWt=          -1 IRanGd=           0 AccXCQ= 0.00D+00.
 Generated NRdTot=       0 NPtTot=           0 NUsed=           0 NTot=          32
 NSgBfM=    34    34    34    34    34 MxSgAt=     4 MxSgA2=     4.
 Leave Link  302 at Fri Mar 20 15:33:23 2026, MaxMem=   536870912 cpu:         1.0
 (Enter C:\G09W\l303.exe)
 DipDrv:  MaxL=1.
 Leave Link  303 at Fri Mar 20 15:33:23 2026, MaxMem=   536870912 cpu:         0.0
 (Enter C:\G09W\l401.exe)
 Initial guess from the checkpoint file:  "acetylene_ml.chk"
 B after Tr=     0.000000    0.000000    0.000000
         Rot=    1.000000    0.000000    0.000000    0.000000 Ang=   0.00 deg.
 Guess basis will be translated and rotated to current coordinates.
 JPrj=2 DoOrth=T DoCkMO=T.
 Initial guess orbital symmetries:
       Occupied  (SG) (SG) (SG) (SG) (SG) (PI) (PI)
       Virtual   (PI) (PI) (SG) (SG) (SG) (SG) (PI) (PI) (PI) (PI)
                 (SG) (SG) (SG) (SG) (SG) (PI) (PI) (DLTA) (DLTA)
                 (DLTA) (DLTA) (SG) (PI) (PI) (SG) (SG) (SG)
 The electronic state of the initial guess is 1-SG.
 Leave Link  401 at Fri Mar 20 15:33:23 2026, MaxMem=   536870912 cpu:         0.0
 (Enter C:\G09W\l502.exe)
 Closed shell SCF:
 Using DIIS extrapolation, IDIIS=  1040.
 Integral symmetry usage will be decided dynamically.
 Keep R1 ints in memory in symmetry-blocked form, NReq=1062384.
 IVT=       22528 IEndB=       22528 NGot=   536870912 MDV=   536792883
 LenX=   536792883 LenY=   536791286
 Requested convergence on RMS density matrix=1.00D-08 within 128 cycles.
 Requested convergence on MAX density matrix=1.00D-06.
 Requested convergence on             energy=1.00D-06.
 No special actions if energy rises.
 FoFCou: FMM=F IPFlag=           0 FMFlag=           0 FMFlg1=           0
         NFxFlg=           0 DoJE=F BraDBF=F KetDBF=F FulRan=T
         wScrn=  0.000000 ICntrl=     600 IOpCl=  0 I1Cent=           0 NGrid=           0
         NMat0=    1 NMatS0=    595 NMatT0=    0 NMatD0=    1 NMtDS0=    0 NMtDT0=    0
 Petite list used in FoFCou.

 Cycle   1  Pass 1  IDiag  1:
 E= -77.3256461805268    
 DIIS: error= 2.66D-09 at cycle   1 NSaved=   1.
 NSaved= 1 IEnMin= 1 EnMin= -77.3256461805268     IErMin= 1 ErrMin= 2.66D-09
 ErrMax= 2.66D-09  0.00D+00 EMaxC= 1.00D-01 BMatC= 1.44D-16 BMatP= 1.44D-16
 IDIUse=1 WtCom= 1.00D+00 WtEn= 0.00D+00
 Coeff-Com:  0.100D+01
 Coeff:      0.100D+01
 Gap=     0.334 Goal=   None    Shift=    0.000
 RMSDP=9.33D-10 MaxDP=7.76D-09              OVMax= 1.62D-08

 SCF Done:  E(RB3LYP) =  -77.3256461805     A.U. after    1 cycles
            NFock=  1  Conv=0.93D-09     -V/T= 2.0103
 KE= 7.653695802580D+01 PE=-2.284350576269D+02 EE= 4.985530879934D+01
 Leave Link  502 at Fri Mar 20 15:33:23 2026, MaxMem=   536870912 cpu:         0.0
 (Enter C:\G09W\l801.exe)
 DoSCS=F DFT=T ScalE2(SS,OS)=  1.000000  1.000000
 Range of M.O.s used for correlation:     1    34
 NBasis=    34 NAE=     7 NBE=     7 NFC=     0 NFV=     0
 NROrb=     34 NOA=     7 NOB=     7 NVA=    27 NVB=    27

 **** Warning!!: The largest alpha MO coefficient is  0.14619940D+02

 Leave Link  801 at Fri Mar 20 15:33:23 2026, MaxMem=   536870912 cpu:         0.0
 (Enter C:\G09W\l1101.exe)
 Using compressed storage, NAtomX=     4.
 Will process      5 centers per pass.
 Leave Link 1101 at Fri Mar 20 15:33:24 2026, MaxMem=   536870912 cpu:         1.0
 (Enter C:\G09W\l1102.exe)
 Symmetrizing basis deriv contribution to polar:
 IMax=3 JMax=2 DiffMx= 0.00D+00
 Leave Link 1102 at Fri Mar 20 15:33:24 2026, MaxMem=   536870912 cpu:         0.0
 (Enter C:\G09W\l1110.exe)
 Forming Gx(P) for the SCF density, NAtomX=     4.
 Integral derivatives from FoFJK, PRISM(SPDF).
 Do as many integral derivatives as possible in FoFJK.
 G2DrvN: MDV=     536870776.
 G2DrvN: will do     5 centers at a time, making    1 passes.
 Calling FoFCou, ICntrl=  3107 FMM=F I1Cent=   0 AccDes= 0.00D+00.
 FoFJK:  IHMeth= 1 ICntrl=    3107 DoSepK=F KAlg= 0 I1Cent=   0 FoldK=F
 IRaf=         0 NMat=   1 IRICut=       1 DoRegI=T DoRafI=F ISym2E= 1.
 FoFCou: FMM=F IPFlag=           0 FMFlag=      100000 FMFlg1=           0
         NFxFlg=           0 DoJE=F BraDBF=F KetDBF=F FulRan=T
         wScrn=  0.000000 ICntrl=    3107 IOpCl=  0 I1Cent=           0 NGrid=           0
         NMat0=    1 NMatS0=      1 NMatT0=    0 NMatD0=    1 NMtDS0=    0 NMtDT0=    0
 Petite list used in FoFCou.
 End of G2Drv F.D. properties file   721 does not exist.
 End of G2Drv F.D. properties file   722 does not exist.
 End of G2Drv F.D. properties file   788 does not exist.
 Leave Link 1110 at Fri Mar 20 15:33:24 2026, MaxMem=   536870912 cpu:         0.0
 (Enter C:\G09W\l1002.exe)
 Minotr:  Closed shell wavefunction.
          IDoAtm=1111
          Direct CPHF calculation.
          Differentiating once with respect to electric field.
                with respect to dipole field.
          Differentiating once with respect to nuclear coordinates.
          Using symmetry in CPHF.
          Requested convergence is 1.0D-08 RMS, and 1.0D-07 maximum.
          Secondary convergence is 1.0D-12 RMS, and 1.0D-12 maximum.
          NewPWx=T KeepS1=F KeepF1=F KeepIn=T MapXYZ=F SortEE=F KeepMc=T.
          MDV=     536870834 using IRadAn=       2.
 Generate precomputed XC quadrature information.
 Keep R1 ints in memory in symmetry-blocked form, NReq=1039686.
 FoFCou: FMM=F IPFlag=           0 FMFlag=           0 FMFlg1=           0
         NFxFlg=           0 DoJE=F BraDBF=F KetDBF=F FulRan=T
         wScrn=  0.000000 ICntrl=     600 IOpCl=  0 I1Cent=           0 NGrid=           0
         NMat0=    1 NMatS0=    595 NMatT0=    0 NMatD0=    1 NMtDS0=    0 NMtDT0=    0
 Petite list used in FoFCou.
          Solving linear equations simultaneously, MaxMat=       0.
          There are    15 degrees of freedom in the 1st order CPHF.  IDoFFX=6 NUNeed=     3.
     12 vectors produced by pass  0 Test12= 1.26D-15 6.67D-09 XBig12= 3.34D+01 3.78D+00.
 AX will form    12 AO Fock derivatives at one time.
[...]
 Symmetry A1   KE= 7.210055130592D+01
 Symmetry A2   KE= 2.580364561407D-34
 Symmetry B1   KE= 2.218203359939D+00
 Symmetry B2   KE= 2.218203359939D+00
  Exact polarizability:   7.863   0.000   7.863   0.000   0.000  27.848
 Approx polarizability:   9.711   0.000   9.711   0.000   0.000  50.810
 No NMR shielding tensors so no spin-rotation constants.
 Leave Link  601 at Fri Mar 20 15:33:25 2026, MaxMem=   536870912 cpu:         0.0
 (Enter C:\G09W\l701.exe)
 Compute integral second derivatives.
 ... and contract with generalized density number  0.
 Leave Link  701 at Fri Mar 20 15:33:25 2026, MaxMem=   536870912 cpu:         0.0
 (Enter C:\G09W\l702.exe)
 L702 exits ... SP integral derivatives will be done elsewhere.
 Leave Link  702 at Fri Mar 20 15:33:26 2026, MaxMem=   536870912 cpu:         0.0
 (Enter C:\G09W\l703.exe)
 Compute integral second derivatives, UseDBF=F ICtDFT=           0.
 Integral derivatives from FoFJK, PRISM(SPDF).
 Calling FoFJK, ICntrl=    100127 FMM=F ISym2X=1 I1Cent= 0 IOpClX= 0 NMat=1 NMatS=1 NMatT=0.
 FoFJK:  IHMeth= 1 ICntrl=  100127 DoSepK=F KAlg= 0 I1Cent=   0 FoldK=F
 IRaf=         0 NMat=   1 IRICut=       1 DoRegI=T DoRafI=F ISym2E= 1.
 FoFCou: FMM=F IPFlag=           0 FMFlag=      100000 FMFlg1=         800
         NFxFlg=           0 DoJE=F BraDBF=F KetDBF=F FulRan=T
         wScrn=  0.000000 ICntrl=  100127 IOpCl=  0 I1Cent=           0 NGrid=           0
         NMat0=    1 NMatS0=      1 NMatT0=    0 NMatD0=    1 NMtDS0=    0 NMtDT0=    0
 Petite list used in FoFCou.
 Leave Link  703 at Fri Mar 20 15:33:26 2026, MaxMem=   536870912 cpu:         0.0
 (Enter C:\G09W\l716.exe)
 Dipole        =-1.11519738D-18 8.46844363D-18 1.17077628D-06
 Polarizability= 7.86319243D+00 2.40783143D-11 7.86319243D+00
                -1.38553763D-11-1.51386241D-10 2.78480034D+01
 Full mass-weighted force constant matrix:
 Low frequencies ---   -8.6823   -8.6823   -0.0013   -0.0013    0.0005  534.8611
 Low frequencies ---  534.8611  775.2049  775.2049
 Diagonal vibrational polarizability:
        3.6299871       3.6299871       0.1737745
 Harmonic frequencies (cm**-1), IR intensities (KM/Mole), Raman scattering
 activities (A**4/AMU), depolarization ratios for plane and unpolarized
 incident light, reduced masses (AMU), force constants (mDyne/A),
 and normal coordinates:
                      1                      2                      3
                     PI                     PI                     PI
 Frequencies --    534.8611               534.8611               775.2049
 Red. masses --      1.5723                 1.5723                 1.0848
 Frc consts  --      0.2650                 0.2650                 0.3841
 IR Inten    --      0.0000                 0.0000                81.0597
  Atom  AN      X      Y      Z        X      Y      Z        X      Y      Z
     1   6    -0.07   0.14   0.00     0.14   0.07   0.00     0.03   0.05   0.00
     2   6     0.07  -0.14   0.00    -0.14  -0.07   0.00     0.03   0.05   0.00
     3   1     0.32  -0.61   0.00    -0.61  -0.32   0.00    -0.34  -0.62   0.00
     4   1    -0.32   0.61   0.00     0.61   0.32   0.00    -0.34  -0.62   0.00
                      4                      5                      6
                     PI                     SG                     SG
 Frequencies --    775.2049              2088.1368              3441.5864
 Red. masses --      1.0848                 3.8256                 1.0848
 Frc consts  --      0.3841                 9.8280                 7.5705
 IR Inten    --     81.0597                 0.0000                76.4840
  Atom  AN      X      Y      Z        X      Y      Z        X      Y      Z
     1   6     0.05  -0.03   0.00     0.00   0.00   0.36     0.00   0.00   0.06
     2   6     0.05  -0.03   0.00     0.00   0.00  -0.36     0.00   0.00   0.06
     3   1    -0.62   0.34   0.00     0.00   0.00   0.61     0.00   0.00  -0.70
     4   1    -0.62   0.34   0.00     0.00   0.00  -0.61     0.00   0.00  -0.70
                      7
                     SG
 Frequencies --   3541.7571
 Red. masses --      1.2282
 Frc consts  --      9.0776
 IR Inten    --      0.0000
  Atom  AN      X      Y      Z
     1   6     0.00   0.00  -0.10
     2   6     0.00   0.00   0.10
     3   1     0.00   0.00   0.70
     4   1     0.00   0.00  -0.70

 -------------------
 - Thermochemistry -
 -------------------
 Temperature   298.150 Kelvin.  Pressure   1.00000 Atm.
 Atom     1 has atomic number  6 and mass  12.00000
 Atom     2 has atomic number  6 and mass  12.00000
 Atom     3 has atomic number  1 and mass   1.00783
 Atom     4 has atomic number  1 and mass   1.00783
 Molecular mass:    26.01565 amu.
 Principal axes and moments of inertia in atomic units:
                           1         2         3
     Eigenvalues --     0.00000  51.16376  51.16376
           X            0.00000   0.45232   0.89186
           Y            0.00000   0.89186  -0.45232
           Z            1.00000   0.00000   0.00000
 This molecule is a prolate symmetric top.
 Rotational symmetry number  1.
 Rotational temperature (Kelvin)      1.69287
 Rotational constant (GHZ):          35.273820
 Zero-point vibrational energy      69931.4 (Joules/Mol)
                                   16.71400 (Kcal/Mol)
 Warning -- explicit consideration of   2 degrees of freedom as
           vibrations may cause significant error
 Vibrational temperatures:    769.54   769.54  1115.35  1115.35  3004.36
          (Kelvin)           4951.67  5095.79
 
 Zero-point correction=                           0.026635 (Hartree/Particle)
 Thermal correction to Energy=                    0.029567
 Thermal correction to Enthalpy=                  0.030511
 Thermal correction to Gibbs Free Energy=         0.006955
 Sum of electronic and zero-point Energies=            -77.299011
 Sum of electronic and thermal Energies=               -77.296079
 Sum of electronic and thermal Enthalpies=             -77.295135
 Sum of electronic and thermal Free Energies=          -77.318691
 
                     E (Thermal)             CV                S
                      KCal/Mol        Cal/Mol-Kelvin    Cal/Mol-Kelvin
 Total                   18.554              8.707             49.579
 Electronic               0.000              0.000              0.000
 Translational            0.889              2.981             35.704
 Rotational               0.592              1.987             12.263
 Vibrational             17.072              3.739              1.611
 Vibration     1          0.890              1.173              0.576
 Vibration     2          0.890              1.173              0.576
                       Q            Log10(Q)             Ln(Q)
 Total Bot       0.632317D-03         -3.199065         -7.366120
 Total V=0       0.112815D+10          9.052366         20.843843
 Vib (Bot)       0.688363D-12        -12.162183        -28.004460
 Vib (Bot)    1  0.297655D+00         -0.526287         -1.211822
 Vib (Bot)    2  0.297655D+00         -0.526287         -1.211822
 Vib (V=0)       0.122814D+01          0.089249          0.205503
 Vib (V=0)    1  0.108189D+01          0.034184          0.078711
 Vib (V=0)    2  0.108189D+01          0.034184          0.078711
 Electronic      0.100000D+01          0.000000          0.000000
 Translational   0.521564D+07          6.717307         15.467172
 Rotational      0.176121D+03          2.245810          5.171169
 
                                                        acetylene ml-corrected
                                                             IR Spectrum
 
     3   3                                                2                                                                          
     5   4                                                0                                              7       5                   
     4   4                                                8                                              7       3                   
     2   2                                                8                                              5       5                   
 
         X                                                                                               X                           
         X                                                                                               X                           
         X                                                                                               X                           
         X                                                                                               X                           
         X                                                                                               X                           
         X                                                                                               X                           
         X                                                                                               X                           
         X                                                                                               X                           
         X                                                                                               X                           
                                                                                                         X                           
                                                                                                         X                           
                                                                                                         X                           
                                                                                                         X                           
                                                                                                         X                           
                                                                                                         X                           
                                                                                                         X                           
                                                                                                         X                           
                                                                                                         X                           
                                                                                                         X                           
                                                                                                         X                           
 
 ***** Axes restored to original set *****
 -------------------------------------------------------------------
 Center     Atomic                   Forces (Hartrees/Bohr)
 Number     Number              X              Y              Z
 -------------------------------------------------------------------
      1        6           0.000010142   -0.000001038   -0.000000164
      2        6          -0.000007359    0.000000753    0.000000119
      3        1          -0.000001844    0.000000189    0.000000030
      4        1          -0.000000939    0.000000096    0.000000015
 -------------------------------------------------------------------
 Cartesian Forces:  Max     0.000010142 RMS     0.000003686
 Force constants in Cartesian coordinates: 
                1             2             3             4             5 
      1  0.154627D+01
      2 -0.154550D+00  0.518308D-01
      3 -0.244313D-01  0.250015D-02  0.364103D-01
      4 -0.113372D+01  0.114496D+00  0.180996D-01  0.154626D+01
      5  0.114496D+00 -0.265885D-01 -0.185220D-02 -0.154549D+00  0.518318D-01
      6  0.180996D-01 -0.185220D-02 -0.151645D-01 -0.244312D-01  0.250013D-02
      7 -0.417840D+00  0.407367D-01  0.643968D-02  0.529204D-02 -0.682773D-03
      8  0.407367D-01 -0.239321D-01 -0.658997D-03 -0.682773D-03 -0.131011D-02
      9  0.643968D-02 -0.658996D-03 -0.198675D-01 -0.107933D-03  0.110452D-04
     10  0.529199D-02 -0.682773D-03 -0.107933D-03 -0.417832D+00  0.407357D-01
     11 -0.682773D-03 -0.131016D-02  0.110452D-04  0.407357D-01 -0.239332D-01
     12 -0.107933D-03  0.110452D-04 -0.137828D-02  0.643952D-02 -0.658981D-03
                6             7             8             9            10 
      6  0.364115D-01
      7 -0.107933D-03  0.412734D+00
      8  0.110452D-04 -0.408153D-01  0.180652D-01
      9 -0.137823D-02 -0.645211D-02  0.660269D-03  0.139928D-01
     10  0.643952D-02 -0.185777D-03  0.761431D-03  0.120367D-03  0.412725D+00
     11 -0.658981D-03  0.761431D-03  0.717697D-02 -0.123177D-04 -0.408144D-01
     12 -0.198687D-01  0.120367D-03 -0.123177D-04  0.725294D-02 -0.645196D-02
               11            12 
     11  0.180664D-01
     12  0.660253D-03  0.139941D-01
 FormGI is forming the generalized inverse of G from B-inverse, IUseBI=4.
 Force constants in internal coordinates: 
                1             2             3             4             5 
      1  0.113527D+01
      2 -0.509801D-02  0.417015D+00
      3 -0.509796D-02  0.265645D-03  0.417007D+00
      4  0.000000D+00  0.000000D+00  0.000000D+00  0.564087D-01
      5  0.000000D+00  0.000000D+00  0.000000D+00 -0.294759D-01  0.564086D-01
      6  0.000000D+00  0.000000D+00  0.000000D+00  0.924141D-04 -0.482901D-04
      7  0.000000D+00  0.000000D+00  0.000000D+00 -0.482901D-04  0.924139D-04
                6             7 
      6  0.558387D-01
      7 -0.291780D-01  0.558386D-01
 Leave Link  716 at Fri Mar 20 15:33:26 2026, MaxMem=   536870912 cpu:         0.0
 (Enter C:\G09W\l103.exe)

 GradGradGradGradGradGradGradGradGradGradGradGradGradGradGradGradGradGrad
 Berny optimization.
 Red2BG is reusing G-inverse.
 Internal  Forces:  Max     0.000008342 RMS     0.000003250
 Search for a local minimum.
 Step number   1 out of a maximum of    2
 All quantities printed in internal units (Hartrees-Bohrs-Radians)
 Second derivative matrix not updated -- analytic derivatives used.
 The second derivative matrix:
                          R1        R2        R3        A1        A2
           R1           1.13527
           R2          -0.00510   0.41701
           R3          -0.00510   0.00027   0.41701
           A1           0.00000   0.00000   0.00000   0.05641
           A2           0.00000   0.00000   0.00000  -0.02948   0.05641
           A3           0.00000   0.00000   0.00000   0.00009  -0.00005
           A4           0.00000   0.00000   0.00000  -0.00005   0.00009
                          A3        A4
           A3           0.05584
           A4          -0.02918   0.05584
 ITU=  0
     Eigenvalues ---    0.02665   0.02694   0.08499   0.08591   0.41675
     Eigenvalues ---    0.41720   1.13534
 Angle between quadratic step and forces=  20.02 degrees.
 Linear search not attempted -- first point.
 Iteration  1 RMS(Cart)=  0.00000274 RMS(Int)=  0.00000000
 Iteration  2 RMS(Cart)=  0.00000000 RMS(Int)=  0.00000001
 ITry= 1 IFail=0 DXMaxC= 5.32D-06 DCOld= 1.00D+10 DXMaxT= 3.00D-01 DXLimC= 3.00D+00 Rises=F
 ClnCor:  largest displacement from symmetrization is 1.81D-12 for atom     2.
 Variable       Old X    -DE/DX   Delta X   Delta X   Delta X     New X
                                 (Linear)    (Quad)   (Total)
    R1        2.27707  -0.00001   0.00000  -0.00001  -0.00001   2.27706
    R2        2.01566   0.00000   0.00000   0.00000   0.00000   2.01566
    R3        2.01567   0.00000   0.00000   0.00000   0.00000   2.01566
    A1        3.14159   0.00000   0.00000   0.00000   0.00000   3.14159
    A2        3.14159   0.00000   0.00000   0.00000   0.00000   3.14159
    A3        3.14159   0.00000   0.00000   0.00000   0.00000   3.14159
    A4        3.14159   0.00000   0.00000   0.00000   0.00000   3.14159
         Item               Value     Threshold  Converged?
 Maximum Force            0.000008     0.000450     YES
 RMS     Force            0.000003     0.000300     YES
 Maximum Displacement     0.000005     0.001800     YES
 RMS     Displacement     0.000003     0.001200     YES
 Predicted change in Energy=-3.576280D-11
 Optimization completed.
    -- Stationary point found.
                           ----------------------------
                           !   Optimized Parameters   !
                           ! (Angstroms and Degrees)  !
 --------------------------                            --------------------------
 ! Name  Definition              Value          Derivative Info.                !
 --------------------------------------------------------------------------------
 ! R1    R(1,2)                  1.205          -DE/DX =    0.0                 !
 ! R2    R(1,3)                  1.0666         -DE/DX =    0.0                 !
 ! R3    R(2,4)                  1.0666         -DE/DX =    0.0                 !
 ! A1    L(2,1,3,-3,-1)        180.0            -DE/DX =    0.0                 !
 ! A2    L(1,2,4,-3,-1)        180.0            -DE/DX =    0.0                 !
 ! A3    L(2,1,3,-2,-2)        180.0            -DE/DX =    0.0                 !
 ! A4    L(1,2,4,-2,-2)        180.0            -DE/DX =    0.0                 !
 --------------------------------------------------------------------------------
 GradGradGradGradGradGradGradGradGradGradGradGradGradGradGradGradGradGrad

 Leave Link  103 at Fri Mar 20 15:33:27 2026, MaxMem=   536870912 cpu:         1.0
 (Enter C:\G09W\l9999.exe)
 1|1|UNPC-DESKTOP-GS7R1K3|Freq|RB3LYP|6-31G(d)|C2H2|1172|20-Mar-2026|0|
 |#P Geom=AllCheck Guess=TCheck SCRF=Check GenChk RB3LYP/6-31G(d) Freq|
 |acetylene ml-corrected||0,1|C,-0.5979612971,0.2537319699,0.0096732557
 |C,0.6005944861,0.1310792541,-0.0097157559|H,-1.6589230488,0.362304171
 6,0.0268364115|H,1.6615597815,0.0225066897,-0.026878969||Version=EM64W
 -G09RevD.01|State=1-SG|HF=-77.3256462|RMSD=9.330e-010|RMSF=3.686e-006|
 ZeroPoint=0.0266355|Thermal=0.0295672|Dipole=0.0000012,-0.0000001,0.|D
 ipoleDeriv=-0.1910356,-0.0005698,-0.0000901,-0.0005698,-0.1965453,0.00
 00092,-0.0000901,0.0000092,-0.1966021,-0.191033,-0.0005702,-0.0000901,
 -0.0005702,-0.1965464,0.0000092,-0.0000901,0.0000092,-0.1966033,0.1910
 346,0.0005699,0.0000901,0.0005699,0.1965456,-0.0000092,0.0000901,-0.00
 00092,0.1966025,0.191034,0.00057,0.0000901,0.00057,0.196546,-0.0000092
 ,0.0000901,-0.0000092,0.1966029|Polar=27.6357667,-2.0234018,8.0702547,
 -0.3198605,0.0327325,7.8683668|PG=C*V [C*(H1C1C1H1)]|NImag=0||1.546268
 45,-0.15454990,0.05183076,-0.02443134,0.00250015,0.03641031,-1.1337203
 8,0.11449599,0.01809959,1.54626005,0.11449599,-0.02658852,-0.00185220,
 -0.15454892,0.05183182,0.01809959,-0.00185220,-0.01516451,-0.02443118,
 0.00250013,0.03641147,-0.41784006,0.04073669,0.00643968,0.00529204,-0.
 00068277,-0.00010793,0.41273379,0.04073669,-0.02393208,-0.00065900,-0.
 00068277,-0.00131011,0.00001105,-0.04081534,0.01806522,0.00643968,-0.0
 0065900,-0.01986752,-0.00010793,0.00001105,-0.00137823,-0.00645211,0.0
 0066027,0.01399281,0.00529199,-0.00068277,-0.00010793,-0.41783170,0.04
 073571,0.00643952,-0.00018578,0.00076143,0.00012037,0.41272549,-0.0006
 8277,-0.00131016,0.00001105,0.04073571,-0.02393319,-0.00065898,0.00076
 143,0.00717697,-0.00001232,-0.04081437,0.01806638,-0.00010793,0.000011
 05,-0.00137828,0.00643952,-0.00065898,-0.01986873,0.00012037,-0.000012
 32,0.00725294,-0.00645196,0.00066025,0.01399407||-0.00001014,0.0000010
 4,0.00000016,0.00000736,-0.00000075,-0.00000012,0.00000184,-0.00000019
 ,-0.00000003,0.00000094,-0.00000010,-0.00000002|||@


 ROSE IS A RED
 TY COBB IS BLUE
 'CAUSE PETE JUST HIT
 NO. 4592.
 Job cpu time:       0 days  0 hours  0 minutes  6.0 seconds.
 File lengths (MBytes):  RWF=      5 Int=      0 D2E=      0 Chk=      1 Scr=      1
 Normal termination of Gaussian 09 at Fri Mar 20 15:33:27 2026.
