 Entering Gaussian System, Link 0=C:\G09W\g09.exe
 Input=acetylene_rdkit.com
 Output=C:\workspace\delta_chem\data\raw\acetylene\acetylene_rdkit.out
 Initial command:
 C:\G09W\l1.exe ".\Gau-11288.inp" "C:\workspace\delta_chem\data\raw\acetylene\acetylene_rdkit.out" /scrdir=".\"
 Entering Link 1 = C:\G09W\l1.exe PID=      9728.
  
 Copyright (c) 1988,1990,1992,1993,1995,1998,2003,2009,2013,
            Gaussian, Inc.  All Rights Reserved.
  
 This is part of the Gaussian(R) 09 program.  It is based on
 the Gaussian(R) 03 system (copyright 2003, Gaussian, Inc.),
 the Gaussian(R) 98 system (copyright 1998, Gaussian, Inc.),
 the Gaussian(R) 94 system (copyright 1995, Gaussian, Inc.),
 the Gaussian 92(TM) system (copyright 1992, Gaussian, Inc.),
 the Gaussian 90(TM) system (copyright 1990, Gaussian, Inc.),
 the Gaussian 88(TM) system (copyright 1988, Gaussian, Inc.),
 the Gaussian 86(TM) system (copyright 1986, Carnegie Mellon
 University), and the Gaussian 82(TM) system (copyright 1983,
 Carnegie Mellon University). Gaussian is a federally registered
 trademark of Gaussian, Inc.
  
 This software contains proprietary and confidential information,
 including trade secrets, belonging to Gaussian, Inc.
  
 This software is provided under written license and may be
 used, copied, transmitted, or stored only in accord with that
 written license.
  
 The following legend is applicable only to US Government
 contracts under FAR:
  
                    RESTRICTED RIGHTS LEGEND
  
 Use, reproduction and disclosure by the US Government is
 subject to restrictions as set forth in subparagraphs (a)
 and (c) of the Commercial Computer Software - Restricted
 Rights clause in FAR 52.227-19.
  
 Gaussian, Inc.
 340 Quinnipiac St., Bldg. 40, Wallingford CT 06492
  
  
 ---------------------------------------------------------------
 Warning -- This program may not be used in any manner that
 competes with the business of Gaussian, Inc. or will provide
 assistance to any competitor of Gaussian, Inc.  The licensee
 of this program is prohibited from giving any competitor of
 Gaussian, Inc. access to this program.  By using this program,
 the user acknowledges that Gaussian, Inc. is engaged in the
 business of creating and licensing software in the field of
 computational chemistry and represents and warrants to the
 licensee that it is not a competitor of Gaussian, Inc. and that
 it will not use this program in any manner prohibited above.
 ---------------------------------------------------------------
  

 Cite this work as:
 Gaussian 09, Revision D.01,
 M. J. Frisch, G. W. Trucks, H. B. Schlegel, G. E. Scuseria, 
 M. A. Robb, J. R. Cheeseman, G. Scalmani, V. Barone, B. Mennucci, 
 G. A. Petersson, H. Nakatsuji, M. Caricato, X. Li, H. P. Hratchian, 
 A. F. Izmaylov, J. Bloino, G. Zheng, J. L. Sonnenberg, M. Hada, 
 M. Ehara, K. Toyota, R. Fukuda, J. Hasegawa, M. Ishida, T. Nakajima, 
 Y. Honda, O. Kitao, H. Nakai, T. Vreven, J. A. Montgomery, Jr., 
 J. E. Peralta, F. Ogliaro, M. Bearpark, J. J. Heyd, E. Brothers, 
 K. N. Kudin, V. N. Staroverov, T. Keith, R. Kobayashi, J. Normand, 
 K. Raghavachari, A. Rendell, J. C. Burant, S. S. Iyengar, J. Tomasi, 
 M. Cossi, N. Rega, J. M. Millam, M. Klene, J. E. Knox, J. B. Cross, 
 V. Bakken, C. Adamo, J. Jaramillo, R. Gomperts, R. E. Stratmann, 
 O. Yazyev, A. J. Austin, R. Cammi, C. Pomelli, J. W. Ochterski, 
 R. L. Martin, K. Morokuma, V. G. Zakrzewski, G. A. Voth, 
 P. Salvador, J. J. Dannenberg, S. Dapprich, A. D. Daniels, 
 O. Farkas, J. B. Foresman, J. V. Ortiz, J. Cioslowski, 
 and D. J. Fox, Gaussian, Inc., Wallingford CT, 2013.
 
 ******************************************
 Gaussian 09:  EM64W-G09RevD.01 13-Apr-2013
                20-Mar-2026 
 ******************************************
 %NProcShared=4
 Will use up to    4 processors via shared memory.
 %Mem=4GB
 %Chk=acetylene_rdkit.chk
 --------------------------
 #p opt freq B3LYP/6-31G(d)
 --------------------------
 1/14=-1,18=20,19=15,26=3,38=1/1,3;
 2/9=110,12=2,17=6,18=5,40=1/2;
 3/5=1,6=6,7=1,11=2,16=1,25=1,30=1,71=1,74=-5/1,2,3;
 4//1;
 5/5=2,38=5/2;
 6/7=2,8=2,9=2,10=2,28=1/1;
 7//1,2,3,16;
 1/14=-1,18=20,19=15,26=3/3(2);
 2/9=110/2;
 99//99;
 2/9=110/2;
 3/5=1,6=6,7=1,11=2,16=1,25=1,30=1,71=1,74=-5/1,2,3;
 4/5=5,16=3,69=1/1;
 5/5=2,38=5/2;
 7//1,2,3,16;
 1/14=-1,18=20,19=15,26=3/3(-5);
 2/9=110/2;
 6/7=2,8=2,9=2,10=2,19=2,28=1/1;
 99/9=1/99;
 Leave Link    1 at Fri Mar 20 15:32:56 2026, MaxMem=   536870912 cpu:         0.0
 (Enter C:\G09W\l101.exe)
 ---------------
 acetylene rdkit
 ---------------
 Symbolic Z-matrix:
 Charge =  0 Multiplicity = 1
 C                    -0.59696   0.25363   0.00966 
 C                     0.59696   0.13145  -0.00966 
 H                    -1.65709   0.36212   0.02681 
 H                     1.65709   0.02297  -0.02681 
 
 NAtoms=      4 NQM=        4 NQMF=       0 NMMI=      0 NMMIF=      0
                NMic=       0 NMicF=      0.
                    Isotopes and Nuclear Properties:
 (Nuclear quadrupole moments (NQMom) in fm**2, nuclear magnetic moments (NMagM)
  in nuclear magnetons)

  Atom         1           2           3           4
 IAtWgt=          12          12           1           1
 AtmWgt=  12.0000000  12.0000000   1.0078250   1.0078250
 NucSpn=           0           0           1           1
 AtZEff=   0.0000000   0.0000000   0.0000000   0.0000000
 NQMom=    0.0000000   0.0000000   0.0000000   0.0000000
 NMagM=    0.0000000   0.0000000   2.7928460   2.7928460
 AtZNuc=   6.0000000   6.0000000   1.0000000   1.0000000
 Leave Link  101 at Fri Mar 20 15:32:57 2026, MaxMem=   536870912 cpu:         1.0
 (Enter C:\G09W\l103.exe)

 GradGradGradGradGradGradGradGradGradGradGradGradGradGradGradGradGradGrad
 Berny optimization.
 Initialization pass.
                           ----------------------------
                           !    Initial Parameters    !
                           ! (Angstroms and Degrees)  !
 --------------------------                            --------------------------
 ! Name  Definition              Value          Derivative Info.                !
 --------------------------------------------------------------------------------
 ! R1    R(1,2)                  1.2003         estimate D2E/DX2                !
 ! R2    R(1,3)                  1.0658         estimate D2E/DX2                !
 ! R3    R(2,4)                  1.0658         estimate D2E/DX2                !
 ! A1    L(2,1,3,-3,-1)        180.0            estimate D2E/DX2                !
 ! A2    L(1,2,4,-3,-1)        180.0            estimate D2E/DX2                !
 ! A3    L(2,1,3,-2,-2)        180.0            estimate D2E/DX2                !
 ! A4    L(1,2,4,-2,-2)        180.0            estimate D2E/DX2                !
 --------------------------------------------------------------------------------
 Trust Radius=3.00D-01 FncErr=1.00D-07 GrdErr=1.00D-06
 Number of steps in this run=     20 maximum allowed number of steps=    100.
 GradGradGradGradGradGradGradGradGradGradGradGradGradGradGradGradGradGrad

 Leave Link  103 at Fri Mar 20 15:32:57 2026, MaxMem=   536870912 cpu:         0.0
 (Enter C:\G09W\l202.exe)
                          Input orientation:                          
 ---------------------------------------------------------------------
 Center     Atomic      Atomic             Coordinates (Angstroms)
 Number     Number       Type             X           Y           Z
 ---------------------------------------------------------------------
      1          6           0       -0.596956    0.253629    0.009657
      2          6           0        0.596956    0.131452   -0.009657
      3          1           0       -1.657086    0.362116    0.026806
      4          1           0        1.657086    0.022965   -0.026807
 ---------------------------------------------------------------------
                    Distance matrix (angstroms):
                    1          2          3          4
     1  C    0.000000
     2  C    1.200303   0.000000
     3  H    1.065804   2.266107   0.000000
     4  H    2.266107   1.065804   3.331911   0.000000
 Stoichiometry    C2H2
 Framework group  D*H[C*(HC.CH)]
 Deg. of freedom     2
 Full point group                 D*H     NOp   8
 Largest Abelian subgroup         D2H     NOp   8
 Largest concise Abelian subgroup C2      NOp   2
                         Standard orientation:                         
 ---------------------------------------------------------------------
 Center     Atomic      Atomic             Coordinates (Angstroms)
 Number     Number       Type             X           Y           Z
 ---------------------------------------------------------------------
      1          6           0        0.000000    0.000000    0.600151
      2          6           0        0.000000    0.000000   -0.600151
      3          1           0        0.000000    0.000000    1.665956
      4          1           0        0.000000    0.000000   -1.665956
 ---------------------------------------------------------------------
 Rotational constants (GHZ):      0.0000000     35.4935660     35.4935660
 Leave Link  202 at Fri Mar 20 15:32:57 2026, MaxMem=   536870912 cpu:         0.0
 (Enter C:\G09W\l301.exe)
 Standard basis: 6-31G(d) (6D, 7F)
 Ernie: Thresh=  0.10000D-02 Tol=  0.10000D-05 Strict=F.
 There are    10 symmetry adapted cartesian basis functions of AG  symmetry.
 There are     1 symmetry adapted cartesian basis functions of B1G symmetry.
 There are     3 symmetry adapted cartesian basis functions of B2G symmetry.
 There are     3 symmetry adapted cartesian basis functions of B3G symmetry.
 There are     1 symmetry adapted cartesian basis functions of AU  symmetry.
 There are    10 symmetry adapted cartesian basis functions of B1U symmetry.
 There are     3 symmetry adapted cartesian basis functions of B2U symmetry.
 There are     3 symmetry adapted cartesian basis functions of B3U symmetry.
 There are    10 symmetry adapted basis functions of AG  symmetry.
 There are     1 symmetry adapted basis functions of B1G symmetry.
 There are     3 symmetry adapted basis functions of B2G symmetry.
 There are     3 symmetry adapted basis functions of B3G symmetry.
 There are     1 symmetry adapted basis functions of AU  symmetry.
 There are    10 symmetry adapted basis functions of B1U symmetry.
 There are     3 symmetry adapted basis functions of B2U symmetry.
 There are     3 symmetry adapted basis functions of B3U symmetry.
    34 basis functions,    64 primitive gaussians,    34 cartesian basis functions
     7 alpha electrons        7 beta electrons
       nuclear repulsion energy        24.7904141055 Hartrees.
 IExCor=  402 DFT=T Ex+Corr=B3LYP ExCW=0 ScaHFX=  0.200000
 ScaDFX=  0.800000  0.720000  1.000000  0.810000 ScalE2=  1.000000  1.000000
 IRadAn=      0 IRanWt=     -1 IRanGd=            0 ICorTp=0 IEmpDi=  4
 NAtoms=    4 NActive=    4 NUniq=    2 SFac= 4.00D+00 NAtFMM=   60 NAOKFM=F Big=F
 Integral buffers will be    131072 words long.
 Raffenetti 2 integral format.
 Two-electron integral symmetry is turned on.
 Leave Link  301 at Fri Mar 20 15:32:57 2026, MaxMem=   536870912 cpu:         0.0
 (Enter C:\G09W\l302.exe)
 NPDir=0 NMtPBC=     1 NCelOv=     1 NCel=       1 NClECP=     1 NCelD=      1
         NCelK=      1 NCelE2=     1 NClLst=     1 CellRange=     0.0.
 One-electron integrals computed using PRISM.
 One-electron integral symmetry used in STVInt
 NBasis=    34 RedAO= T EigKep=  1.41D-03  NBF=    10     1     3     3     1    10     3     3
 NBsUse=    34 1.00D-06 EigRej= -1.00D+00 NBFU=    10     1     3     3     1    10     3     3
 Precomputing XC quadrature grid using
 IXCGrd= 4 IRadAn=           0 IRanWt=          -1 IRanGd=           0 AccXCQ= 0.00D+00.
 Generated NRdTot=       0 NPtTot=           0 NUsed=           0 NTot=          32
 NSgBfM=    34    34    34    34    34 MxSgAt=     4 MxSgA2=     4.
 Leave Link  302 at Fri Mar 20 15:32:57 2026, MaxMem=   536870912 cpu:         0.0
 (Enter C:\G09W\l303.exe)
 DipDrv:  MaxL=1.
 Leave Link  303 at Fri Mar 20 15:32:57 2026, MaxMem=   536870912 cpu:         0.0
 (Enter C:\G09W\l401.exe)
 ExpMin= 1.61D-01 ExpMax= 3.05D+03 ExpMxC= 4.57D+02 IAcc=1 IRadAn=         1 AccDes= 0.00D+00
 Harris functional with IExCor=  402 and IRadAn=       1 diagonalized for initial guess.
 HarFok:  IExCor=  402 AccDes= 0.00D+00 IRadAn=         1 IDoV= 1 UseB2=F ITyADJ=14
 ICtDFT=  3500011 ScaDFX=  1.000000  1.000000  1.000000  1.000000
 FoFCou: FMM=F IPFlag=           0 FMFlag=      100000 FMFlg1=           0
         NFxFlg=           0 DoJE=T BraDBF=F KetDBF=T FulRan=T
         wScrn=  0.000000 ICntrl=     500 IOpCl=  0 I1Cent=   200000004 NGrid=           0
         NMat0=    1 NMatS0=      1 NMatT0=    0 NMatD0=    1 NMtDS0=    0 NMtDT0=    0
 Petite list used in FoFCou.
 Harris En= -77.3721202915625    
 JPrj=0 DoOrth=F DoCkMO=F.
 Initial guess orbital symmetries:
       Occupied  (SGG) (SGU) (SGG) (SGU) (SGG) (PIU) (PIU)
       Virtual   (PIG) (PIG) (SGU) (SGG) (SGU) (SGG) (PIU) (PIU)
                 (PIG) (PIG) (SGU) (SGG) (SGG) (SGU) (PIU) (PIU)
                 (DLTG) (DLTG) (SGU) (DLTU) (DLTU) (SGG) (PIG)
                 (PIG) (SGU) (SGG) (SGU)
 The electronic state of the initial guess is 1-SGG.
 Leave Link  401 at Fri Mar 20 15:32:57 2026, MaxMem=   536870912 cpu:         0.0
 (Enter C:\G09W\l502.exe)
 Closed shell SCF:
 Using DIIS extrapolation, IDIIS=  1040.
 Integral symmetry usage will be decided dynamically.
 Keep R1 ints in memory in symmetry-blocked form, NReq=1063162.
 IVT=       22626 IEndB=       22626 NGot=   536870912 MDV=   536818445
 LenX=   536818445 LenY=   536816848
 Requested convergence on RMS density matrix=1.00D-08 within 128 cycles.
 Requested convergence on MAX density matrix=1.00D-06.
 Requested convergence on             energy=1.00D-06.
 No special actions if energy rises.
 FoFCou: FMM=F IPFlag=           0 FMFlag=           0 FMFlg1=           0
         NFxFlg=           0 DoJE=F BraDBF=F KetDBF=F FulRan=T
         wScrn=  0.000000 ICntrl=     600 IOpCl=  0 I1Cent=           0 NGrid=           0
         NMat0=    1 NMatS0=    595 NMatT0=    0 NMatD0=    1 NMtDS0=    0 NMtDT0=    0
 Petite list used in FoFCou.
 Integral accuracy reduced to 1.0D-05 until final iterations.

 Cycle   1  Pass 0  IDiag  1:
 E= -77.2491911896258    
 DIIS: error= 5.09D-02 at cycle   1 NSaved=   1.
 NSaved= 1 IEnMin= 1 EnMin= -77.2491911896258     IErMin= 1 ErrMin= 5.09D-02
 ErrMax= 5.09D-02  0.00D+00 EMaxC= 1.00D-01 BMatC= 6.70D-02 BMatP= 6.70D-02
 IDIUse=3 WtCom= 4.91D-01 WtEn= 5.09D-01
 Coeff-Com:  0.100D+01
 Coeff-En:   0.100D+01
 Coeff:      0.100D+01
 Gap=     0.313 Goal=   None    Shift=    0.000
 GapD=    0.313 DampG=1.000 DampE=0.500 DampFc=0.5000 IDamp=-1.
 Damping current iteration by 5.00D-01
 RMSDP=1.41D-02 MaxDP=9.52D-02              OVMax= 1.66D-01

 Cycle   2  Pass 0  IDiag  1:
 E= -77.2886703331481     Delta-E=       -0.039479143522 Rises=F Damp=T
 DIIS: error= 8.18D-03 at cycle   2 NSaved=   2.
 NSaved= 2 IEnMin= 2 EnMin= -77.2886703331481     IErMin= 2 ErrMin= 8.18D-03
 ErrMax= 8.18D-03  0.00D+00 EMaxC= 1.00D-01 BMatC= 1.61D-03 BMatP= 6.70D-02
 IDIUse=3 WtCom= 9.18D-01 WtEn= 8.18D-02
 Coeff-Com: -0.687D-01 0.107D+01
 Coeff-En:   0.000D+00 0.100D+01
 Coeff:     -0.631D-01 0.106D+01
 Gap=     0.339 Goal=   None    Shift=    0.000
 RMSDP=1.82D-03 MaxDP=1.64D-02 DE=-3.95D-02 OVMax= 7.92D-02

 Cycle   3  Pass 0  IDiag  1:
 E= -77.3255874778036     Delta-E=       -0.036917144656 Rises=F Damp=F
 DIIS: error= 7.83D-04 at cycle   3 NSaved=   3.
 NSaved= 3 IEnMin= 3 EnMin= -77.3255874778036     IErMin= 3 ErrMin= 7.83D-04
 ErrMax= 7.83D-04  0.00D+00 EMaxC= 1.00D-01 BMatC= 1.49D-05 BMatP= 1.61D-03
 IDIUse=3 WtCom= 9.92D-01 WtEn= 7.83D-03
 Coeff-Com: -0.150D-01 0.506D-01 0.964D+00
 Coeff-En:   0.000D+00 0.000D+00 0.100D+01
 Coeff:     -0.149D-01 0.502D-01 0.965D+00
 Gap=     0.336 Goal=   None    Shift=    0.000
 RMSDP=2.33D-04 MaxDP=2.04D-03 DE=-3.69D-02 OVMax= 1.89D-03

 Cycle   4  Pass 0  IDiag  1:
 E= -77.3256056479565     Delta-E=       -0.000018170153 Rises=F Damp=F
 DIIS: error= 7.80D-05 at cycle   4 NSaved=   4.
 NSaved= 4 IEnMin= 4 EnMin= -77.3256056479565     IErMin= 4 ErrMin= 7.80D-05
 ErrMax= 7.80D-05  0.00D+00 EMaxC= 1.00D-01 BMatC= 8.51D-08 BMatP= 1.49D-05
 IDIUse=1 WtCom= 1.00D+00 WtEn= 0.00D+00
 Coeff-Com: -0.104D-02 0.329D-03 0.973D-01 0.903D+00
 Coeff:     -0.104D-02 0.329D-03 0.973D-01 0.903D+00
 Gap=     0.336 Goal=   None    Shift=    0.000
 RMSDP=1.09D-05 MaxDP=8.98D-05 DE=-1.82D-05 OVMax= 1.31D-04

 Cycle   5  Pass 0  IDiag  1:
 E= -77.3256057405560     Delta-E=       -0.000000092600 Rises=F Damp=F
 DIIS: error= 2.75D-06 at cycle   5 NSaved=   5.
 NSaved= 5 IEnMin= 5 EnMin= -77.3256057405560     IErMin= 5 ErrMin= 2.75D-06
 ErrMax= 2.75D-06  0.00D+00 EMaxC= 1.00D-01 BMatC= 2.36D-10 BMatP= 8.51D-08
 IDIUse=1 WtCom= 1.00D+00 WtEn= 0.00D+00
 Coeff-Com: -0.582D-05-0.549D-04-0.435D-02-0.268D-01 0.103D+01
 Coeff:     -0.582D-05-0.549D-04-0.435D-02-0.268D-01 0.103D+01
 Gap=     0.336 Goal=   None    Shift=    0.000
 RMSDP=1.21D-06 MaxDP=9.40D-06 DE=-9.26D-08 OVMax= 5.56D-06

 Initial convergence to 1.0D-05 achieved.  Increase integral accuracy.
 Cycle   6  Pass 1  IDiag  1:
 E= -77.3256007704066     Delta-E=        0.000004970149 Rises=F Damp=F
 DIIS: error= 3.08D-06 at cycle   1 NSaved=   1.
 NSaved= 1 IEnMin= 1 EnMin= -77.3256007704066     IErMin= 1 ErrMin= 3.08D-06
 ErrMax= 3.08D-06  0.00D+00 EMaxC= 1.00D-01 BMatC= 1.41D-10 BMatP= 1.41D-10
 IDIUse=1 WtCom= 1.00D+00 WtEn= 0.00D+00
 Coeff-Com:  0.100D+01
 Coeff:      0.100D+01
 Gap=     0.336 Goal=   None    Shift=    0.000
 RMSDP=1.21D-06 MaxDP=9.40D-06 DE= 4.97D-06 OVMax= 3.25D-06

 Cycle   7  Pass 1  IDiag  1:
 E= -77.3256007705045     Delta-E=       -0.000000000098 Rises=F Damp=F
 DIIS: error= 4.74D-07 at cycle   2 NSaved=   2.
 NSaved= 2 IEnMin= 2 EnMin= -77.3256007705045     IErMin= 2 ErrMin= 4.74D-07
 ErrMax= 4.74D-07  0.00D+00 EMaxC= 1.00D-01 BMatC= 4.11D-12 BMatP= 1.41D-10
 IDIUse=1 WtCom= 1.00D+00 WtEn= 0.00D+00
 Coeff-Com:  0.279D-01 0.972D+00
 Coeff:      0.279D-01 0.972D+00
 Gap=     0.336 Goal=   None    Shift=    0.000
 RMSDP=1.64D-07 MaxDP=1.39D-06 DE=-9.79D-11 OVMax= 1.35D-06

 Cycle   8  Pass 1  IDiag  1:
 E= -77.3256007705061     Delta-E=       -0.000000000002 Rises=F Damp=F
 DIIS: error= 3.12D-07 at cycle   3 NSaved=   3.
 NSaved= 3 IEnMin= 3 EnMin= -77.3256007705061     IErMin= 3 ErrMin= 3.12D-07
 ErrMax= 3.12D-07  0.00D+00 EMaxC= 1.00D-01 BMatC= 2.51D-12 BMatP= 4.11D-12
 IDIUse=1 WtCom= 1.00D+00 WtEn= 0.00D+00
 Coeff-Com: -0.140D-01 0.440D+00 0.574D+00
 Coeff:     -0.140D-01 0.440D+00 0.574D+00
 Gap=     0.336 Goal=   None    Shift=    0.000
 RMSDP=4.25D-08 MaxDP=2.84D-07 DE=-1.56D-12 OVMax= 5.29D-07

 Cycle   9  Pass 1  IDiag  1:
 E= -77.3256007705087     Delta-E=       -0.000000000003 Rises=F Damp=F
 DIIS: error= 8.54D-09 at cycle   4 NSaved=   4.
 NSaved= 4 IEnMin= 4 EnMin= -77.3256007705087     IErMin= 4 ErrMin= 8.54D-09
 ErrMax= 8.54D-09  0.00D+00 EMaxC= 1.00D-01 BMatC= 9.72D-16 BMatP= 2.51D-12
 IDIUse=1 WtCom= 1.00D+00 WtEn= 0.00D+00
 Coeff-Com:  0.563D-03-0.316D-01-0.223D-01 0.105D+01
 Coeff:      0.563D-03-0.316D-01-0.223D-01 0.105D+01
 Gap=     0.336 Goal=   None    Shift=    0.000
 RMSDP=1.87D-09 MaxDP=1.57D-08 DE=-2.59D-12 OVMax= 1.51D-08

 SCF Done:  E(RB3LYP) =  -77.3256007705     A.U. after    9 cycles
            NFock=  9  Conv=0.19D-08     -V/T= 2.0100
 KE= 7.656058692468D+01 PE=-2.286026255661D+02 EE= 4.992602376542D+01
 Leave Link  502 at Fri Mar 20 15:32:58 2026, MaxMem=   536870912 cpu:         1.0
 (Enter C:\G09W\l601.exe)
 Copying SCF densities to generalized density rwf, IOpCl= 0 IROHF=0.

 **********************************************************************

            Population analysis using the SCF density.

 **********************************************************************

 Orbital symmetries:
       Occupied  (SGG) (SGU) (SGG) (SGU) (SGG) (PIU) (PIU)
       Virtual   (PIG) (PIG) (SGU) (SGG) (SGU) (SGG) (PIU) (PIU)
                 (PIG) (PIG) (SGU) (SGG) (SGG) (SGU) (SGU) (PIU)
                 (PIU) (DLTG) (DLTG) (DLTU) (DLTU) (SGG) (PIG)
                 (PIG) (SGU) (SGG) (SGU)
 The electronic state is 1-SGG.
 Alpha  occ. eigenvalues --  -10.19100 -10.18850  -0.74352  -0.56507  -0.49182
 Alpha  occ. eigenvalues --   -0.28264  -0.28264
 Alpha virt. eigenvalues --    0.05383   0.05383   0.10658   0.14917   0.42870
 Alpha virt. eigenvalues --    0.47024   0.53220   0.53220   0.65531   0.65531
 Alpha virt. eigenvalues --    0.74691   0.82421   1.03071   1.22630   1.50703
 Alpha virt. eigenvalues --    1.50951   1.50951   1.54789   1.54789   1.94628
 Alpha virt. eigenvalues --    1.94628   2.43595   2.49219   2.49219   3.20269
 Alpha virt. eigenvalues --    4.13952   4.33143
          Condensed to atoms (all electrons):
               1          2          3          4
     1  C    4.874896   0.987041   0.357874  -0.032446
     2  C    0.987041   4.874896  -0.032446   0.357874
     3  H    0.357874  -0.032446   0.485206   0.002001
     4  H   -0.032446   0.357874   0.002001   0.485206
 Mulliken charges:
               1
     1  C   -0.187365
     2  C   -0.187365
     3  H    0.187365
     4  H    0.187365
 Sum of Mulliken charges =   0.00000
 Mulliken charges with hydrogens summed into heavy atoms:
               1
     1  C    0.000000
     2  C    0.000000
 Electronic spatial extent (au):  <R**2>=             59.6389
 Charge=              0.0000 electrons
 Dipole moment (field-independent basis, Debye):
    X=              0.0000    Y=              0.0000    Z=              0.0000  Tot=              0.0000
 Quadrupole moment (field-independent basis, Debye-Ang):
   XX=            -13.0060   YY=            -13.0060   ZZ=             -6.7824
   XY=              0.0000   XZ=              0.0000   YZ=              0.0000
 Traceless Quadrupole moment (field-independent basis, Debye-Ang):
   XX=             -2.0745   YY=             -2.0745   ZZ=              4.1490
   XY=              0.0000   XZ=              0.0000   YZ=              0.0000
 Octapole moment (field-independent basis, Debye-Ang**2):
  XXX=              0.0000  YYY=              0.0000  ZZZ=              0.0000  XYY=              0.0000
  XXY=              0.0000  XXZ=              0.0000  XZZ=              0.0000  YZZ=              0.0000
  YYZ=              0.0000  XYZ=              0.0000
 Hexadecapole moment (field-independent basis, Debye-Ang**3):
 XXXX=            -13.3166 YYYY=            -13.3166 ZZZZ=            -37.8645 XXXY=              0.0000
 XXXZ=              0.0000 YYYX=              0.0000 YYYZ=              0.0000 ZZZX=              0.0000
 ZZZY=              0.0000 XXYY=             -4.4389 XXZZ=            -11.5524 YYZZ=            -11.5524
 XXYZ=              0.0000 YYXZ=              0.0000 ZZXY=              0.0000
 N-N= 2.479041410547D+01 E-N=-2.286026253867D+02  KE= 7.656058692468D+01
 Symmetry AG   KE= 3.784722194155D+01
 Symmetry B1G  KE= 5.960241895865D-33
 Symmetry B2G  KE= 2.345327496225D-32
 Symmetry B3G  KE= 1.114594300154D-31
 Symmetry AU   KE= 3.940804252007D-33
 Symmetry B1U  KE= 3.427097234087D+01
 Symmetry B2U  KE= 2.221196321131D+00
 Symmetry B3U  KE= 2.221196321131D+00
 No NMR shielding tensors so no spin-rotation constants.
 Leave Link  601 at Fri Mar 20 15:32:58 2026, MaxMem=   536870912 cpu:         0.0
 (Enter C:\G09W\l701.exe)
 Compute integral first derivatives.
 ... and contract with generalized density number  0.
 Leave Link  701 at Fri Mar 20 15:32:58 2026, MaxMem=   536870912 cpu:         0.0
 (Enter C:\G09W\l702.exe)
 L702 exits ... SP integral derivatives will be done elsewhere.
 Leave Link  702 at Fri Mar 20 15:32:59 2026, MaxMem=   536870912 cpu:         1.0
 (Enter C:\G09W\l703.exe)
 Compute integral first derivatives, UseDBF=F ICtDFT=           0.
 Integral derivatives from FoFJK, PRISM(SPDF).
 Calling FoFJK, ICntrl=      2127 FMM=F ISym2X=1 I1Cent= 0 IOpClX= 0 NMat=1 NMatS=1 NMatT=0.
 FoFJK:  IHMeth= 1 ICntrl=    2127 DoSepK=F KAlg= 0 I1Cent=   0 FoldK=F
 IRaf=         0 NMat=   1 IRICut=       1 DoRegI=T DoRafI=F ISym2E= 1.
 FoFCou: FMM=F IPFlag=           0 FMFlag=      100000 FMFlg1=         800
         NFxFlg=           0 DoJE=F BraDBF=F KetDBF=F FulRan=T
         wScrn=  0.000000 ICntrl=    2127 IOpCl=  0 I1Cent=           0 NGrid=           0
         NMat0=    1 NMatS0=      1 NMatT0=    0 NMatD0=    1 NMtDS0=    0 NMtDT0=    0
 Petite list used in FoFCou.
 Leave Link  703 at Fri Mar 20 15:32:59 2026, MaxMem=   536870912 cpu:         0.0
 (Enter C:\G09W\l716.exe)
 Dipole        = 3.66028546D-17-3.53550300D-18-8.88178420D-16
 ***** Axes restored to original set *****
 -------------------------------------------------------------------
 Center     Atomic                   Forces (Hartrees/Bohr)
 Number     Number              X              Y              Z
 -------------------------------------------------------------------
      1        6          -0.009456895    0.000967757    0.000152984
      2        6           0.009456895   -0.000967757   -0.000152984
      3        1          -0.000614643    0.000062899    0.000009943
      4        1           0.000614643   -0.000062899   -0.000009943
 -------------------------------------------------------------------
 Cartesian Forces:  Max     0.009456895 RMS     0.003889616
 Leave Link  716 at Fri Mar 20 15:32:59 2026, MaxMem=   536870912 cpu:         0.0
 (Enter C:\G09W\l103.exe)

 GradGradGradGradGradGradGradGradGradGradGradGradGradGradGradGradGradGrad
 Berny optimization.
 FormGI is forming the generalized inverse of G from B-inverse, IUseBI=4.
 Internal  Forces:  Max     0.010125447 RMS     0.003841286
 Search for a local minimum.
 Step number   1 out of a maximum of   20
 All quantities printed in internal units (Hartrees-Bohrs-Radians)
 RMS Force = .38413D-02 SwitMx=.10000D-02 MixMth= 1
 Mixed Optimization -- RFO/linear search
 Second derivative matrix not updated -- first step.
 The second derivative matrix:
                          R1        R2        R3        A1        A2
           R1           1.04671
           R2           0.00000   0.37765
           R3           0.00000   0.00000   0.37765
           A1           0.00000   0.00000   0.00000   0.00555
           A2           0.00000   0.00000   0.00000   0.00000   0.00555
           A3           0.00000   0.00000   0.00000   0.00000   0.00000
           A4           0.00000   0.00000   0.00000   0.00000   0.00000
                          A3        A4
           A3           0.00555
           A4           0.00000   0.00555
 ITU=  0
     Eigenvalues ---    0.00555   0.00555   0.00555   0.00555   0.37765
     Eigenvalues ---    0.37765   1.04671
 RFO step:  Lambda=-9.99714432D-05 EMin= 5.54890748D-03
 Linear search not attempted -- first point.
 Iteration  1 RMS(Cart)=  0.00431868 RMS(Int)=  0.00000002
 SLEqS3 Cycle:   121 Max:0.283867E-07 RMS:0.134257E-07 Conv:0.290232E-13
 SLEqS3 Cycle:   121 Max:0.297160E-07 RMS:0.139697E-07 Conv:0.290232E-13
 Iteration  2 RMS(Cart)=  0.00000000 RMS(Int)=  0.00000001
 ITry= 1 IFail=0 DXMaxC= 6.44D-03 DCOld= 1.00D+10 DXMaxT= 3.00D-01 DXLimC= 3.00D+00 Rises=F
 ClnCor:  largest displacement from symmetrization is 8.48D-09 for atom     4.
 Variable       Old X    -DE/DX   Delta X   Delta X   Delta X     New X
                                 (Linear)    (Quad)   (Total)
    R1        2.26824   0.01013   0.00000   0.00967   0.00967   2.27792
    R2        2.01408   0.00062   0.00000   0.00164   0.00164   2.01571
    R3        2.01408   0.00062   0.00000   0.00164   0.00164   2.01571
    A1        3.14159   0.00000   0.00000   0.00000   0.00000   3.14159
    A2        3.14159   0.00000   0.00000   0.00000   0.00000   3.14159
    A3        3.14159   0.00000   0.00000   0.00000   0.00000   3.14159
    A4        3.14159   0.00000   0.00000   0.00000   0.00000   3.14159
         Item               Value     Threshold  Converged?
 Maximum Force            0.010125     0.000450     NO 
 RMS     Force            0.003841     0.000300     NO 
 Maximum Displacement     0.006438     0.001800     NO 
 RMS     Displacement     0.004319     0.001200     NO 
 Predicted change in Energy=-4.998572D-05
 Lowest energy point so far.  Saving SCF results.
 GradGradGradGradGradGradGradGradGradGradGradGradGradGradGradGradGradGrad

 Leave Link  103 at Fri Mar 20 15:32:59 2026, MaxMem=   536870912 cpu:         0.0
 (Enter C:\G09W\l202.exe)
                          Input orientation:                          
 ---------------------------------------------------------------------
 Center     Atomic      Atomic             Coordinates (Angstroms)
 Number     Number       Type             X           Y           Z
 ---------------------------------------------------------------------
      1          6           0       -0.599502    0.253890    0.009698
      2          6           0        0.599502    0.131191   -0.009698
      3          1           0       -1.660493    0.362464    0.026862
      4          1           0        1.660493    0.022617   -0.026862
 ---------------------------------------------------------------------
                    Distance matrix (angstroms):
                    1          2          3          4
     1  C    0.000000
     2  C    1.205421   0.000000
     3  H    1.066670   2.272091   0.000000
     4  H    2.272091   1.066670   3.338761   0.000000
 Stoichiometry    C2H2
 Framework group  D*H[C*(HC.CH)]
 Deg. of freedom     2
 Full point group                 D*H     NOp   8
 RotChk:  IX=0 Diff= 2.30D-16
 Largest Abelian subgroup         D2H     NOp   8
 Largest concise Abelian subgroup C2      NOp   2
                         Standard orientation:                         
 ---------------------------------------------------------------------
 Center     Atomic      Atomic             Coordinates (Angstroms)
 Number     Number       Type             X           Y           Z
 ---------------------------------------------------------------------
      1          6           0        0.000000    0.000000    0.602711
      2          6           0        0.000000    0.000000   -0.602711
      3          1           0        0.000000    0.000000    1.669381
      4          1           0        0.000000    0.000000   -1.669381
 ---------------------------------------------------------------------
 Rotational constants (GHZ):      0.0000000     35.2536296     35.2536296
 Leave Link  202 at Fri Mar 20 15:32:59 2026, MaxMem=   536870912 cpu:         0.0
 (Enter C:\G09W\l301.exe)
 Standard basis: 6-31G(d) (6D, 7F)
 Ernie: Thresh=  0.10000D-02 Tol=  0.10000D-05 Strict=F.
 There are    10 symmetry adapted cartesian basis functions of AG  symmetry.
 There are     1 symmetry adapted cartesian basis functions of B1G symmetry.
 There are     3 symmetry adapted cartesian basis functions of B2G symmetry.
 There are     3 symmetry adapted cartesian basis functions of B3G symmetry.
 There are     1 symmetry adapted cartesian basis functions of AU  symmetry.
 There are    10 symmetry adapted cartesian basis functions of B1U symmetry.
 There are     3 symmetry adapted cartesian basis functions of B2U symmetry.
 There are     3 symmetry adapted cartesian basis functions of B3U symmetry.
 There are    10 symmetry adapted basis functions of AG  symmetry.
 There are     1 symmetry adapted basis functions of B1G symmetry.
 There are     3 symmetry adapted basis functions of B2G symmetry.
 There are     3 symmetry adapted basis functions of B3G symmetry.
 There are     1 symmetry adapted basis functions of AU  symmetry.
 There are    10 symmetry adapted basis functions of B1U symmetry.
 There are     3 symmetry adapted basis functions of B2U symmetry.
 There are     3 symmetry adapted basis functions of B3U symmetry.
    34 basis functions,    64 primitive gaussians,    34 cartesian basis functions
     7 alpha electrons        7 beta electrons
       nuclear repulsion energy        24.7104787899 Hartrees.
 IExCor=  402 DFT=T Ex+Corr=B3LYP ExCW=0 ScaHFX=  0.200000
 ScaDFX=  0.800000  0.720000  1.000000  0.810000 ScalE2=  1.000000  1.000000
 IRadAn=      0 IRanWt=     -1 IRanGd=            0 ICorTp=0 IEmpDi=  4
 NAtoms=    4 NActive=    4 NUniq=    2 SFac= 4.00D+00 NAtFMM=   60 NAOKFM=F Big=F
 Integral buffers will be    131072 words long.
 Raffenetti 2 integral format.
 Two-electron integral symmetry is turned on.
 Leave Link  301 at Fri Mar 20 15:32:59 2026, MaxMem=   536870912 cpu:         0.0
 (Enter C:\G09W\l302.exe)
 NPDir=0 NMtPBC=     1 NCelOv=     1 NCel=       1 NClECP=     1 NCelD=      1
         NCelK=      1 NCelE2=     1 NClLst=     1 CellRange=     0.0.
 One-electron integrals computed using PRISM.
 One-electron integral symmetry used in STVInt
 NBasis=    34 RedAO= T EigKep=  1.45D-03  NBF=    10     1     3     3     1    10     3     3
 NBsUse=    34 1.00D-06 EigRej= -1.00D+00 NBFU=    10     1     3     3     1    10     3     3
 Precomputing XC quadrature grid using
 IXCGrd= 4 IRadAn=           0 IRanWt=          -1 IRanGd=           0 AccXCQ= 0.00D+00.
 Generated NRdTot=       0 NPtTot=           0 NUsed=           0 NTot=          32
 NSgBfM=    34    34    34    34    34 MxSgAt=     4 MxSgA2=     4.
 Leave Link  302 at Fri Mar 20 15:33:00 2026, MaxMem=   536870912 cpu:         0.0
 (Enter C:\G09W\l303.exe)
 DipDrv:  MaxL=1.
 Leave Link  303 at Fri Mar 20 15:33:00 2026, MaxMem=   536870912 cpu:         0.0
 (Enter C:\G09W\l401.exe)
 Initial guess from the checkpoint file:  "acetylene_rdkit.chk"
 B after Tr=     0.000000    0.000000    0.000000
         Rot=    1.000000    0.000000    0.000000    0.000000 Ang=   0.00 deg.
 Guess basis will be translated and rotated to current coordinates.
 JPrj=2 DoOrth=T DoCkMO=T.
 Initial guess orbital symmetries:
       Occupied  (SGG) (SGU) (SGG) (SGU) (SGG) (PIU) (PIU)
       Virtual   (SGG) (SGG) (SGG) (DLTG) (SGG) (SGG) (SGG) (DLTG)
                 (PIG) (PIG) (PIG) (PIG) (PIG) (PIG) (DLTU) (SGU)
                 (SGU) (SGU) (DLTU) (SGU) (SGU) (SGU) (SGU) (PIU)
                 (PIU) (PIU) (PIU)
 The electronic state of the initial guess is 1-SGG.
 Leave Link  401 at Fri Mar 20 15:33:00 2026, MaxMem=   536870912 cpu:         0.0
 (Enter C:\G09W\l502.exe)
 Closed shell SCF:
 Using DIIS extrapolation, IDIIS=  1040.
 Integral symmetry usage will be decided dynamically.
 Keep R1 ints in memory in symmetry-blocked form, NReq=1063162.
 IVT=       22626 IEndB=       22626 NGot=   536870912 MDV=   536818445
 LenX=   536818445 LenY=   536816848
 Requested convergence on RMS density matrix=1.00D-08 within 128 cycles.
 Requested convergence on MAX density matrix=1.00D-06.
 Requested convergence on             energy=1.00D-06.
 No special actions if energy rises.
 FoFCou: FMM=F IPFlag=           0 FMFlag=           0 FMFlg1=           0
         NFxFlg=           0 DoJE=F BraDBF=F KetDBF=F FulRan=T
         wScrn=  0.000000 ICntrl=     600 IOpCl=  0 I1Cent=           0 NGrid=           0
         NMat0=    1 NMatS0=    595 NMatT0=    0 NMatD0=    1 NMtDS0=    0 NMtDT0=    0
 Petite list used in FoFCou.

 Cycle   1  Pass 1  IDiag  1:
 E= -77.3256361282929    
 DIIS: error= 5.78D-04 at cycle   1 NSaved=   1.
 NSaved= 1 IEnMin= 1 EnMin= -77.3256361282929     IErMin= 1 ErrMin= 5.78D-04
 ErrMax= 5.78D-04  0.00D+00 EMaxC= 1.00D-01 BMatC= 7.68D-06 BMatP= 7.68D-06
 IDIUse=3 WtCom= 9.94D-01 WtEn= 5.78D-03
 Coeff-Com:  0.100D+01
 Coeff-En:   0.100D+01
 Coeff:      0.100D+01
 Gap=     0.576 Goal=   None    Shift=    0.000
 RMSDP=1.28D-04 MaxDP=8.46D-04              OVMax= 1.26D-03

 Cycle   2  Pass 1  IDiag  1:
 E= -77.3256416980865     Delta-E=       -0.000005569794 Rises=F Damp=F
 DIIS: error= 4.03D-04 at cycle   2 NSaved=   2.
 NSaved= 2 IEnMin= 2 EnMin= -77.3256416980865     IErMin= 2 ErrMin= 4.03D-04
 ErrMax= 4.03D-04  0.00D+00 EMaxC= 1.00D-01 BMatC= 3.86D-06 BMatP= 7.68D-06
 IDIUse=3 WtCom= 9.96D-01 WtEn= 4.03D-03
 Coeff-Com:  0.406D+00 0.594D+00
 Coeff-En:   0.189D+00 0.811D+00
 Coeff:      0.406D+00 0.594D+00
 Gap=     0.334 Goal=   None    Shift=    0.000
 RMSDP=5.64D-05 MaxDP=3.97D-04 DE=-5.57D-06 OVMax= 6.91D-04

 Cycle   3  Pass 1  IDiag  1:
 E= -77.3256457043585     Delta-E=       -0.000004006272 Rises=F Damp=F
 DIIS: error= 4.30D-05 at cycle   3 NSaved=   3.
 NSaved= 3 IEnMin= 3 EnMin= -77.3256457043585     IErMin= 3 ErrMin= 4.30D-05
 ErrMax= 4.30D-05  0.00D+00 EMaxC= 1.00D-01 BMatC= 5.01D-08 BMatP= 3.86D-06
 IDIUse=1 WtCom= 1.00D+00 WtEn= 0.00D+00
 Coeff-Com:  0.289D-01 0.118D+00 0.853D+00
 Coeff:      0.289D-01 0.118D+00 0.853D+00
 Gap=     0.334 Goal=   None    Shift=    0.000
 RMSDP=8.41D-06 MaxDP=5.80D-05 DE=-4.01D-06 OVMax= 9.65D-05

 Cycle   4  Pass 1  IDiag  1:
 E= -77.3256457624145     Delta-E=       -0.000000058056 Rises=F Damp=F
 DIIS: error= 3.55D-06 at cycle   4 NSaved=   4.
 NSaved= 4 IEnMin= 4 EnMin= -77.3256457624145     IErMin= 4 ErrMin= 3.55D-06
 ErrMax= 3.55D-06  0.00D+00 EMaxC= 1.00D-01 BMatC= 4.42D-10 BMatP= 5.01D-08
 IDIUse=1 WtCom= 1.00D+00 WtEn= 0.00D+00
 Coeff-Com: -0.259D-02-0.619D-02 0.579D-01 0.951D+00
 Coeff:     -0.259D-02-0.619D-02 0.579D-01 0.951D+00
 Gap=     0.334 Goal=   None    Shift=    0.000
 RMSDP=6.68D-07 MaxDP=5.82D-06 DE=-5.81D-08 OVMax= 9.34D-06

 Cycle   5  Pass 1  IDiag  1:
 E= -77.3256457629209     Delta-E=       -0.000000000506 Rises=F Damp=F
 DIIS: error= 1.45D-07 at cycle   5 NSaved=   5.
 NSaved= 5 IEnMin= 5 EnMin= -77.3256457629209     IErMin= 5 ErrMin= 1.45D-07
 ErrMax= 1.45D-07  0.00D+00 EMaxC= 1.00D-01 BMatC= 6.95D-13 BMatP= 4.42D-10
 IDIUse=1 WtCom= 1.00D+00 WtEn= 0.00D+00
 Coeff-Com: -0.373D-03-0.118D-02 0.304D-02 0.104D+00 0.895D+00
 Coeff:     -0.373D-03-0.118D-02 0.304D-02 0.104D+00 0.895D+00
 Gap=     0.334 Goal=   None    Shift=    0.000
 RMSDP=3.28D-08 MaxDP=2.88D-07 DE=-5.06D-10 OVMax= 2.75D-07

 Cycle   6  Pass 1  IDiag  1:
 E= -77.3256457629221     Delta-E=       -0.000000000001 Rises=F Damp=F
 DIIS: error= 2.02D-08 at cycle   6 NSaved=   6.
 NSaved= 6 IEnMin= 6 EnMin= -77.3256457629221     IErMin= 6 ErrMin= 2.02D-08
 ErrMax= 2.02D-08  0.00D+00 EMaxC= 1.00D-01 BMatC= 8.81D-15 BMatP= 6.95D-13
 IDIUse=1 WtCom= 1.00D+00 WtEn= 0.00D+00
 Coeff-Com:  0.153D-04 0.208D-05-0.603D-03-0.662D-02 0.859D-01 0.921D+00
 Coeff:      0.153D-04 0.208D-05-0.603D-03-0.662D-02 0.859D-01 0.921D+00
 Gap=     0.334 Goal=   None    Shift=    0.000
 RMSDP=3.21D-09 MaxDP=2.41D-08 DE=-1.18D-12 OVMax= 3.32D-08

 SCF Done:  E(RB3LYP) =  -77.3256457629     A.U. after    6 cycles
            NFock=  6  Conv=0.32D-08     -V/T= 2.0103
 KE= 7.653485672251D+01 PE=-2.284197945098D+02 EE= 4.984881323450D+01
 Leave Link  502 at Fri Mar 20 15:33:01 2026, MaxMem=   536870912 cpu:         1.0
 (Enter C:\G09W\l701.exe)
 Compute integral first derivatives.
 ... and contract with generalized density number  0.
 Leave Link  701 at Fri Mar 20 15:33:01 2026, MaxMem=   536870912 cpu:         0.0
 (Enter C:\G09W\l702.exe)
 L702 exits ... SP integral derivatives will be done elsewhere.
 Leave Link  702 at Fri Mar 20 15:33:01 2026, MaxMem=   536870912 cpu:         0.0
 (Enter C:\G09W\l703.exe)
 Compute integral first derivatives, UseDBF=F ICtDFT=           0.
 Integral derivatives from FoFJK, PRISM(SPDF).
 Calling FoFJK, ICntrl=      2127 FMM=F ISym2X=1 I1Cent= 0 IOpClX= 0 NMat=1 NMatS=1 NMatT=0.
 FoFJK:  IHMeth= 1 ICntrl=    2127 DoSepK=F KAlg= 0 I1Cent=   0 FoldK=F
 IRaf=         0 NMat=   1 IRICut=       1 DoRegI=T DoRafI=F ISym2E= 1.
 FoFCou: FMM=F IPFlag=           0 FMFlag=      100000 FMFlg1=         800
         NFxFlg=           0 DoJE=F BraDBF=F KetDBF=F FulRan=T
         wScrn=  0.000000 ICntrl=    2127 IOpCl=  0 I1Cent=           0 NGrid=           0
         NMat0=    1 NMatS0=      1 NMatT0=    0 NMatD0=    1 NMtDS0=    0 NMtDT0=    0
 Petite list used in FoFCou.
 Leave Link  703 at Fri Mar 20 15:33:01 2026, MaxMem=   536870912 cpu:         0.0
 (Enter C:\G09W\l716.exe)
 Dipole        = 4.01643804D-17 1.16448811D-17 4.44089210D-16
 ***** Axes restored to original set *****
 -------------------------------------------------------------------
 Center     Atomic                   Forces (Hartrees/Bohr)
 Number     Number              X              Y              Z
 -------------------------------------------------------------------
      1        6           0.000949619   -0.000097178   -0.000015362
      2        6          -0.000949619    0.000097178    0.000015362
      3        1           0.000016901   -0.000001730   -0.000000273
      4        1          -0.000016901    0.000001730    0.000000273
 -------------------------------------------------------------------
 Cartesian Forces:  Max     0.000949619 RMS     0.000389817
 Leave Link  716 at Fri Mar 20 15:33:02 2026, MaxMem=   536870912 cpu:         1.0
 (Enter C:\G09W\l103.exe)

 GradGradGradGradGradGradGradGradGradGradGradGradGradGradGradGradGradGrad
 Berny optimization.
 Using GEDIIS/GDIIS optimizer.
 Red2BG is reusing G-inverse.
 Internal  Forces:  Max     0.000971694 RMS     0.000367378
 Search for a local minimum.
 Step number   2 out of a maximum of   20
 All quantities printed in internal units (Hartrees-Bohrs-Radians)
 RMS Force = .36738D-03 SwitMx=.10000D-02 MixMth= 2
 Mixed Optimization -- En-DIIS/RFO-DIIS
 Update second derivatives using D2CorX and points    1    2
 DE= -4.50D-05 DEPred=-5.00D-05 R= 9.00D-01
 TightC=F SS=  1.41D+00  RLast= 9.95D-03 DXNew= 5.0454D-01 2.9836D-02
 Trust test= 9.00D-01 RLast= 9.95D-03 DXMaxT set to 3.00D-01
 The second derivative matrix:
                          R1        R2        R3        A1        A2
           R1           1.14665
           R2           0.00182   0.37752
           R3           0.00182  -0.00013   0.37752
           A1           0.00000   0.00000   0.00000   0.00555
           A2           0.00000   0.00000   0.00000   0.00000   0.00555
           A3           0.00000   0.00000   0.00000   0.00000   0.00000
           A4           0.00000   0.00000   0.00000   0.00000   0.00000
                          A3        A4
           A3           0.00555
           A4           0.00000   0.00555
 ITU=  1  0
 Use linear search instead of GDIIS.
     Eigenvalues ---    0.00555   0.00555   0.00555   0.00555   0.37738
     Eigenvalues ---    0.37765   1.14666
 RFO step:  Lambda= 0.00000000D+00 EMin= 5.54890748D-03
 Quartic linear search produced a step of -0.08755.
 Iteration  1 RMS(Cart)=  0.00034224 RMS(Int)=  0.00000001
 Iteration  2 RMS(Cart)=  0.00000001 RMS(Int)=  0.00000001
 ITry= 1 IFail=0 DXMaxC= 4.73D-04 DCOld= 1.00D+10 DXMaxT= 3.00D-01 DXLimC= 3.00D+00 Rises=F
 ClnCor:  largest displacement from symmetrization is 1.39D-08 for atom     1.
 Variable       Old X    -DE/DX   Delta X   Delta X   Delta X     New X
                                 (Linear)    (Quad)   (Total)
    R1        2.27792  -0.00097  -0.00085  -0.00001  -0.00086   2.27706
    R2        2.01571  -0.00002  -0.00014   0.00010  -0.00005   2.01567
    R3        2.01571  -0.00002  -0.00014   0.00010  -0.00005   2.01567
    A1        3.14159   0.00000   0.00000   0.00000   0.00000   3.14159
    A2        3.14159   0.00000   0.00000   0.00000   0.00000   3.14159
    A3        3.14159   0.00000   0.00000   0.00000   0.00000   3.14159
    A4        3.14159   0.00000   0.00000   0.00000   0.00000   3.14159
         Item               Value     Threshold  Converged?
 Maximum Force            0.000972     0.000450     NO 
 RMS     Force            0.000367     0.000300     NO 
 Maximum Displacement     0.000473     0.001800     YES
 RMS     Displacement     0.000342     0.001200     YES
 Predicted change in Energy=-4.122712D-07
 Lowest energy point so far.  Saving SCF results.
 GradGradGradGradGradGradGradGradGradGradGradGradGradGradGradGradGradGrad

 Leave Link  103 at Fri Mar 20 15:33:02 2026, MaxMem=   536870912 cpu:         0.0
 (Enter C:\G09W\l202.exe)
                          Input orientation:                          
 ---------------------------------------------------------------------
 Center     Atomic      Atomic             Coordinates (Angstroms)
 Number     Number       Type             X           Y           Z
 ---------------------------------------------------------------------
      1          6           0       -0.599276    0.253866    0.009694
      2          6           0        0.599276    0.131215   -0.009695
      3          1           0       -1.660242    0.362439    0.026858
      4          1           0        1.660242    0.022642   -0.026858
 ---------------------------------------------------------------------
                    Distance matrix (angstroms):
                    1          2          3          4
     1  C    0.000000
     2  C    1.204967   0.000000
     3  H    1.066646   2.271613   0.000000
     4  H    2.271613   1.066646   3.338258   0.000000
 Stoichiometry    C2H2
 Framework group  D*H[C*(HC.CH)]
 Deg. of freedom     2
 Full point group                 D*H     NOp   8
 RotChk:  IX=0 Diff= 2.39D-16
 Largest Abelian subgroup         D2H     NOp   8
 Largest concise Abelian subgroup C2      NOp   2
                         Standard orientation:                         
 ---------------------------------------------------------------------
 Center     Atomic      Atomic             Coordinates (Angstroms)
 Number     Number       Type             X           Y           Z
 ---------------------------------------------------------------------
      1          6           0        0.000000    0.000000    0.602484
      2          6           0        0.000000    0.000000   -0.602484
      3          1           0        0.000000    0.000000    1.669129
      4          1           0        0.000000    0.000000   -1.669129
 ---------------------------------------------------------------------
 Rotational constants (GHZ):      0.0000000     35.2739503     35.2739503
 Leave Link  202 at Fri Mar 20 15:33:02 2026, MaxMem=   536870912 cpu:         0.0
 (Enter C:\G09W\l301.exe)
 Standard basis: 6-31G(d) (6D, 7F)
 Ernie: Thresh=  0.10000D-02 Tol=  0.10000D-05 Strict=F.
 There are    10 symmetry adapted cartesian basis functions of AG  symmetry.
 There are     1 symmetry adapted cartesian basis functions of B1G symmetry.
 There are     3 symmetry adapted cartesian basis functions of B2G symmetry.
 There are     3 symmetry adapted cartesian basis functions of B3G symmetry.
 There are     1 symmetry adapted cartesian basis functions of AU  symmetry.
 There are    10 symmetry adapted cartesian basis functions of B1U symmetry.
 There are     3 symmetry adapted cartesian basis functions of B2U symmetry.
 There are     3 symmetry adapted cartesian basis functions of B3U symmetry.
 There are    10 symmetry adapted basis functions of AG  symmetry.
 There are     1 symmetry adapted basis functions of B1G symmetry.
 There are     3 symmetry adapted basis functions of B2G symmetry.
 There are     3 symmetry adapted basis functions of B3G symmetry.
 There are     1 symmetry adapted basis functions of AU  symmetry.
 There are    10 symmetry adapted basis functions of B1U symmetry.
 There are     3 symmetry adapted basis functions of B2U symmetry.
 There are     3 symmetry adapted basis functions of B3U symmetry.
    34 basis functions,    64 primitive gaussians,    34 cartesian basis functions
     7 alpha electrons        7 beta electrons
       nuclear repulsion energy        24.7171827783 Hartrees.
 IExCor=  402 DFT=T Ex+Corr=B3LYP ExCW=0 ScaHFX=  0.200000
 ScaDFX=  0.800000  0.720000  1.000000  0.810000 ScalE2=  1.000000  1.000000
 IRadAn=      0 IRanWt=     -1 IRanGd=            0 ICorTp=0 IEmpDi=  4
 NAtoms=    4 NActive=    4 NUniq=    2 SFac= 4.00D+00 NAtFMM=   60 NAOKFM=F Big=F
 Integral buffers will be    131072 words long.
 Raffenetti 2 integral format.
 Two-electron integral symmetry is turned on.
 Leave Link  301 at Fri Mar 20 15:33:02 2026, MaxMem=   536870912 cpu:         0.0
 (Enter C:\G09W\l302.exe)
 NPDir=0 NMtPBC=     1 NCelOv=     1 NCel=       1 NClECP=     1 NCelD=      1
         NCelK=      1 NCelE2=     1 NClLst=     1 CellRange=     0.0.
 One-electron integrals computed using PRISM.
 One-electron integral symmetry used in STVInt
 NBasis=    34 RedAO= T EigKep=  1.45D-03  NBF=    10     1     3     3     1    10     3     3
 NBsUse=    34 1.00D-06 EigRej= -1.00D+00 NBFU=    10     1     3     3     1    10     3     3
 Precomputing XC quadrature grid using
 IXCGrd= 4 IRadAn=           0 IRanWt=          -1 IRanGd=           0 AccXCQ= 0.00D+00.
 Generated NRdTot=       0 NPtTot=           0 NUsed=           0 NTot=          32
 NSgBfM=    34    34    34    34    34 MxSgAt=     4 MxSgA2=     4.
 Leave Link  302 at Fri Mar 20 15:33:02 2026, MaxMem=   536870912 cpu:         0.0
 (Enter C:\G09W\l303.exe)
 DipDrv:  MaxL=1.
 Leave Link  303 at Fri Mar 20 15:33:02 2026, MaxMem=   536870912 cpu:         0.0
 (Enter C:\G09W\l401.exe)
 Initial guess from the checkpoint file:  "acetylene_rdkit.chk"
 B after Tr=     0.000000    0.000000    0.000000
         Rot=    1.000000    0.000000    0.000000    0.000000 Ang=   0.00 deg.
 Guess basis will be translated and rotated to current coordinates.
 JPrj=2 DoOrth=T DoCkMO=T.
 Initial guess orbital symmetries:
       Occupied  (SGG) (SGU) (SGG) (SGU) (SGG) (PIU) (PIU)
       Virtual   (SGG) (SGG) (SGG) (DLTG) (SGG) (SGG) (SGG) (DLTG)
                 (PIG) (PIG) (PIG) (PIG) (PIG) (PIG) (DLTU) (SGU)
                 (SGU) (SGU) (DLTU) (SGU) (SGU) (SGU) (SGU) (PIU)
                 (PIU) (PIU) (PIU)
 The electronic state of the initial guess is 1-SGG.
 Leave Link  401 at Fri Mar 20 15:33:03 2026, MaxMem=   536870912 cpu:         1.0
 (Enter C:\G09W\l502.exe)
 Closed shell SCF:
 Using DIIS extrapolation, IDIIS=  1040.
 Integral symmetry usage will be decided dynamically.
 Keep R1 ints in memory in symmetry-blocked form, NReq=1063162.
 IVT=       22626 IEndB=       22626 NGot=   536870912 MDV=   536818445
 LenX=   536818445 LenY=   536816848
 Requested convergence on RMS density matrix=1.00D-08 within 128 cycles.
 Requested convergence on MAX density matrix=1.00D-06.
 Requested convergence on             energy=1.00D-06.
 No special actions if energy rises.
 FoFCou: FMM=F IPFlag=           0 FMFlag=           0 FMFlg1=           0
         NFxFlg=           0 DoJE=F BraDBF=F KetDBF=F FulRan=T
         wScrn=  0.000000 ICntrl=     600 IOpCl=  0 I1Cent=           0 NGrid=           0
         NMat0=    1 NMatS0=    595 NMatT0=    0 NMatD0=    1 NMtDS0=    0 NMtDT0=    0
 Petite list used in FoFCou.

 Cycle   1  Pass 1  IDiag  1:
 E= -77.3256461061644    
 DIIS: error= 5.04D-05 at cycle   1 NSaved=   1.
 NSaved= 1 IEnMin= 1 EnMin= -77.3256461061644     IErMin= 1 ErrMin= 5.04D-05
 ErrMax= 5.04D-05  0.00D+00 EMaxC= 1.00D-01 BMatC= 5.89D-08 BMatP= 5.89D-08
 IDIUse=1 WtCom= 1.00D+00 WtEn= 0.00D+00
 Coeff-Com:  0.100D+01
 Coeff:      0.100D+01
 Gap=     0.577 Goal=   None    Shift=    0.000
 RMSDP=1.08D-05 MaxDP=7.34D-05              OVMax= 1.06D-04

 Cycle   2  Pass 1  IDiag  1:
 E= -77.3256461503707     Delta-E=       -0.000000044206 Rises=F Damp=F
 DIIS: error= 3.57D-05 at cycle   2 NSaved=   2.
 NSaved= 2 IEnMin= 2 EnMin= -77.3256461503707     IErMin= 2 ErrMin= 3.57D-05
 ErrMax= 3.57D-05  0.00D+00 EMaxC= 1.00D-01 BMatC= 2.90D-08 BMatP= 5.89D-08
 IDIUse=1 WtCom= 1.00D+00 WtEn= 0.00D+00
 Coeff-Com:  0.403D+00 0.597D+00
 Coeff:      0.403D+00 0.597D+00
 Gap=     0.334 Goal=   None    Shift=    0.000
 RMSDP=4.89D-06 MaxDP=3.39D-05 DE=-4.42D-08 OVMax= 5.99D-05

 Cycle   3  Pass 1  IDiag  1:
 E= -77.3256461800861     Delta-E=       -0.000000029715 Rises=F Damp=F
 DIIS: error= 3.64D-06 at cycle   3 NSaved=   3.
 NSaved= 3 IEnMin= 3 EnMin= -77.3256461800861     IErMin= 3 ErrMin= 3.64D-06
 ErrMax= 3.64D-06  0.00D+00 EMaxC= 1.00D-01 BMatC= 4.00D-10 BMatP= 2.90D-08
 IDIUse=1 WtCom= 1.00D+00 WtEn= 0.00D+00
 Coeff-Com:  0.286D-01 0.119D+00 0.853D+00
 Coeff:      0.286D-01 0.119D+00 0.853D+00
 Gap=     0.334 Goal=   None    Shift=    0.000
 RMSDP=7.19D-07 MaxDP=4.63D-06 DE=-2.97D-08 OVMax= 8.48D-06

 Cycle   4  Pass 1  IDiag  1:
 E= -77.3256461805475     Delta-E=       -0.000000000461 Rises=F Damp=F
 DIIS: error= 3.86D-07 at cycle   4 NSaved=   4.
 NSaved= 4 IEnMin= 4 EnMin= -77.3256461805475     IErMin= 4 ErrMin= 3.86D-07
 ErrMax= 3.86D-07  0.00D+00 EMaxC= 1.00D-01 BMatC= 5.09D-12 BMatP= 4.00D-10
 IDIUse=1 WtCom= 1.00D+00 WtEn= 0.00D+00
 Coeff-Com: -0.275D-02-0.618D-02 0.758D-01 0.933D+00
 Coeff:     -0.275D-02-0.618D-02 0.758D-01 0.933D+00
 Gap=     0.334 Goal=   None    Shift=    0.000
 RMSDP=6.84D-08 MaxDP=6.19D-07 DE=-4.61D-10 OVMax= 9.35D-07

 Cycle   5  Pass 1  IDiag  1:
 E= -77.3256461805528     Delta-E=       -0.000000000005 Rises=F Damp=F
 DIIS: error= 2.26D-08 at cycle   5 NSaved=   5.
 NSaved= 5 IEnMin= 5 EnMin= -77.3256461805528     IErMin= 5 ErrMin= 2.26D-08
 ErrMax= 2.26D-08  0.00D+00 EMaxC= 1.00D-01 BMatC= 1.33D-14 BMatP= 5.09D-12
 IDIUse=1 WtCom= 1.00D+00 WtEn= 0.00D+00
 Coeff-Com: -0.497D-03-0.159D-02 0.591D-02 0.129D+00 0.867D+00
 Coeff:     -0.497D-03-0.159D-02 0.591D-02 0.129D+00 0.867D+00
 Gap=     0.334 Goal=   None    Shift=    0.000
 RMSDP=4.83D-09 MaxDP=4.27D-08 DE=-5.31D-12 OVMax= 4.02D-08

 SCF Done:  E(RB3LYP) =  -77.3256461806     A.U. after    5 cycles
            NFock=  5  Conv=0.48D-08     -V/T= 2.0103
 KE= 7.653696743317D+01 PE=-2.284351461201D+02 EE= 4.985534972802D+01
 Leave Link  502 at Fri Mar 20 15:33:03 2026, MaxMem=   536870912 cpu:         0.0
 (Enter C:\G09W\l701.exe)
 Compute integral first derivatives.
 ... and contract with generalized density number  0.
 Leave Link  701 at Fri Mar 20 15:33:03 2026, MaxMem=   536870912 cpu:         0.0
 (Enter C:\G09W\l702.exe)
 L702 exits ... SP integral derivatives will be done elsewhere.
 Leave Link  702 at Fri Mar 20 15:33:04 2026, MaxMem=   536870912 cpu:         1.0
 (Enter C:\G09W\l703.exe)
 Compute integral first derivatives, UseDBF=F ICtDFT=           0.
 Integral derivatives from FoFJK, PRISM(SPDF).
 Calling FoFJK, ICntrl=      2127 FMM=F ISym2X=1 I1Cent= 0 IOpClX= 0 NMat=1 NMatS=1 NMatT=0.
 FoFJK:  IHMeth= 1 ICntrl=    2127 DoSepK=F KAlg= 0 I1Cent=   0 FoldK=F
 IRaf=         0 NMat=   1 IRICut=       1 DoRegI=T DoRafI=F ISym2E= 1.
 FoFCou: FMM=F IPFlag=           0 FMFlag=      100000 FMFlg1=         800
         NFxFlg=           0 DoJE=F BraDBF=F KetDBF=F FulRan=T
         wScrn=  0.000000 ICntrl=    2127 IOpCl=  0 I1Cent=           0 NGrid=           0
         NMat0=    1 NMatS0=      1 NMatT0=    0 NMatD0=    1 NMtDS0=    0 NMtDT0=    0
 Petite list used in FoFCou.
 Leave Link  703 at Fri Mar 20 15:33:04 2026, MaxMem=   536870912 cpu:         0.0
 (Enter C:\G09W\l716.exe)
 Dipole        = 3.84743002D-17 9.61857506D-18-4.44089210D-16
 ***** Axes restored to original set *****
 -------------------------------------------------------------------
 Center     Atomic                   Forces (Hartrees/Bohr)
 Number     Number              X              Y              Z
 -------------------------------------------------------------------
      1        6          -0.000002590    0.000000265    0.000000042
      2        6           0.000002590   -0.000000265   -0.000000042
      3        1           0.000002009   -0.000000206   -0.000000032
      4        1          -0.000002009    0.000000206    0.000000032
 -------------------------------------------------------------------
 Cartesian Forces:  Max     0.000002590 RMS     0.000001345
 Leave Link  716 at Fri Mar 20 15:33:04 2026, MaxMem=   536870912 cpu:         0.0
 (Enter C:\G09W\l103.exe)

 GradGradGradGradGradGradGradGradGradGradGradGradGradGradGradGradGradGrad
 Berny optimization.
 Using GEDIIS/GDIIS optimizer.
 Red2BG is reusing G-inverse.
 Internal  Forces:  Max     0.000002020 RMS     0.000001102
 Search for a local minimum.
 Step number   3 out of a maximum of   20
 All quantities printed in internal units (Hartrees-Bohrs-Radians)
 RMS Force = .11019D-05 SwitMx=.10000D-02 MixMth= 2
 Mixed Optimization -- En-DIIS/RFO-DIIS
 Swapping is turned off.
 Update second derivatives using D2CorX and points    1    3
 DE= -4.18D-07 DEPred=-4.12D-07 R= 1.01D+00
 Trust test= 1.01D+00 RLast= 8.60D-04 DXMaxT set to 3.00D-01
 The second derivative matrix:
                          R1        R2        R3        A1        A2
           R1           1.14781
           R2           0.00226   0.37757
           R3           0.00226  -0.00008   0.37757
           A1           0.00000   0.00000   0.00000   0.00555
           A2           0.00000   0.00000   0.00000   0.00000   0.00555
           A3           0.00000   0.00000   0.00000   0.00000   0.00000
           A4           0.00000   0.00000   0.00000   0.00000   0.00000
                          A3        A4
           A3           0.00555
           A4           0.00000   0.00555
 ITU=  0  1  0
     Eigenvalues ---    0.00555   0.00555   0.00555   0.00555   0.37747
     Eigenvalues ---    0.37765   1.14783
 En-DIIS/RFO-DIIS IScMMF=        0 using points:     3    2
 RFO step:  Lambda= 0.00000000D+00.
 NNeg= 0 NP= 2 Switch=  2.50D-03 Rises=F DC=  4.18D-07 SmlDif=  1.00D-05
 RMS Error=  0.1770080881D-05 NUsed= 2 EDIIS=F
 DidBck=F Rises=F RFO-DIIS coefs:    0.99957    0.00043
 Iteration  1 RMS(Cart)=  0.00000272 RMS(Int)=  0.00000001
 Iteration  2 RMS(Cart)=  0.00000001 RMS(Int)=  0.00000001
 ITry= 1 IFail=0 DXMaxC= 5.05D-06 DCOld= 1.00D+10 DXMaxT= 3.00D-01 DXLimC= 3.00D+00 Rises=F
 ClnCor:  largest displacement from symmetrization is 1.84D-08 for atom     2.
 Variable       Old X    -DE/DX   Delta X   Delta X   Delta X     New X
                                 (Linear)    (Quad)   (Total)
    R1        2.27706   0.00000   0.00000   0.00000   0.00000   2.27706
    R2        2.01567   0.00000   0.00000  -0.00001  -0.00001   2.01566
    R3        2.01567   0.00000   0.00000  -0.00001  -0.00001   2.01566
    A1        3.14159   0.00000   0.00000   0.00000   0.00000   3.14159
    A2        3.14159   0.00000   0.00000   0.00000   0.00000   3.14159
    A3        3.14159   0.00000   0.00000   0.00000   0.00000   3.14159
    A4        3.14159   0.00000   0.00000   0.00000   0.00000   3.14159
         Item               Value     Threshold  Converged?
 Maximum Force            0.000002     0.000450     YES
 RMS     Force            0.000001     0.000300     YES
 Maximum Displacement     0.000005     0.001800     YES
 RMS     Displacement     0.000003     0.001200     YES
 Predicted change in Energy=-1.096613D-11
 Optimization completed.
    -- Stationary point found.
                           ----------------------------
                           !   Optimized Parameters   !
                           ! (Angstroms and Degrees)  !
 --------------------------                            --------------------------
 ! Name  Definition              Value          Derivative Info.                !
 --------------------------------------------------------------------------------
 ! R1    R(1,2)                  1.205          -DE/DX =    0.0                 !
 ! R2    R(1,3)                  1.0666         -DE/DX =    0.0                 !
 ! R3    R(2,4)                  1.0666         -DE/DX =    0.0                 !
 ! A1    L(2,1,3,-3,-1)        180.0            -DE/DX =    0.0                 !
 ! A2    L(1,2,4,-3,-1)        180.0            -DE/DX =    0.0                 !
 ! A3    L(2,1,3,-2,-2)        180.0            -DE/DX =    0.0                 !
 ! A4    L(1,2,4,-2,-2)        180.0            -DE/DX =    0.0                 !
 --------------------------------------------------------------------------------
 Lowest energy point so far.  Saving SCF results.
 GradGradGradGradGradGradGradGradGradGradGradGradGradGradGradGradGradGrad

 Largest change from initial coordinates is atom    3       0.003 Angstoms.
 Leave Link  103 at Fri Mar 20 15:33:04 2026, MaxMem=   536870912 cpu:         0.0
 (Enter C:\G09W\l202.exe)
                          Input orientation:                          
 ---------------------------------------------------------------------
 Center     Atomic      Atomic             Coordinates (Angstroms)
 Number     Number       Type             X           Y           Z
 ---------------------------------------------------------------------
      1          6           0       -0.599276    0.253866    0.009694
      2          6           0        0.599276    0.131215   -0.009695
      3          1           0       -1.660242    0.362439    0.026858
      4          1           0        1.660242    0.022642   -0.026858
 ---------------------------------------------------------------------
                    Distance matrix (angstroms):
                    1          2          3          4
     1  C    0.000000
     2  C    1.204967   0.000000
     3  H    1.066646   2.271613   0.000000
     4  H    2.271613   1.066646   3.338258   0.000000
 Stoichiometry    C2H2
 Framework group  D*H[C*(HC.CH)]
 Deg. of freedom     2
 Full point group                 D*H     NOp   8
 RotChk:  IX=0 Diff= 4.36D-16
 Largest Abelian subgroup         D2H     NOp   8
 Largest concise Abelian subgroup C2      NOp   2
                         Standard orientation:                         
 ---------------------------------------------------------------------
 Center     Atomic      Atomic             Coordinates (Angstroms)
 Number     Number       Type             X           Y           Z
 ---------------------------------------------------------------------
      1          6           0        0.000000    0.000000    0.602484
      2          6           0        0.000000    0.000000   -0.602484
      3          1           0        0.000000    0.000000    1.669129
      4          1           0        0.000000    0.000000   -1.669129
 ---------------------------------------------------------------------
 Rotational constants (GHZ):      0.0000000     35.2739503     35.2739503
 Leave Link  202 at Fri Mar 20 15:33:04 2026, MaxMem=   536870912 cpu:         0.0
 (Enter C:\G09W\l601.exe)
 Copying SCF densities to generalized density rwf, IOpCl= 0 IROHF=0.

 **********************************************************************

            Population analysis using the SCF density.

 **********************************************************************

 Orbital symmetries:
       Occupied  (SGG) (SGU) (SGG) (SGU) (SGG) (PIU) (PIU)
       Virtual   (PIG) (PIG) (SGU) (SGG) (SGU) (SGG) (PIU) (PIU)
                 (PIG) (PIG) (SGU) (SGG) (SGG) (SGU) (SGU) (PIU)
                 (PIU) (DLTG) (DLTG) (DLTU) (DLTU) (SGG) (PIG)
                 (PIG) (SGU) (SGG) (SGU)
 The electronic state is 1-SGG.
 Alpha  occ. eigenvalues --  -10.19217 -10.18976  -0.74262  -0.56539  -0.49158
 Alpha  occ. eigenvalues --   -0.28193  -0.28193
 Alpha virt. eigenvalues --    0.05243   0.05243   0.10558   0.14883   0.42673
 Alpha virt. eigenvalues --    0.47082   0.53292   0.53292   0.65425   0.65425
 Alpha virt. eigenvalues --    0.74675   0.82440   1.02846   1.21767   1.50514
 Alpha virt. eigenvalues --    1.50644   1.50644   1.54918   1.54918   1.94365
 Alpha virt. eigenvalues --    1.94365   2.43195   2.48720   2.48720   3.19108
 Alpha virt. eigenvalues --    4.13473   4.32924
          Condensed to atoms (all electrons):
               1          2          3          4
     1  C    4.878276   0.984331   0.357836  -0.032130
     2  C    0.984331   4.878276  -0.032130   0.357836
     3  H    0.357836  -0.032130   0.484017   0.001965
     4  H   -0.032130   0.357836   0.001965   0.484017
 Mulliken charges:
               1
     1  C   -0.188312
     2  C   -0.188312
     3  H    0.188312
     4  H    0.188312
 Sum of Mulliken charges =   0.00000
 Mulliken charges with hydrogens summed into heavy atoms:
               1
     1  C    0.000000
     2  C    0.000000
 Electronic spatial extent (au):  <R**2>=             59.8479
 Charge=              0.0000 electrons
 Dipole moment (field-independent basis, Debye):
    X=              0.0000    Y=              0.0000    Z=              0.0000  Tot=              0.0000
 Quadrupole moment (field-independent basis, Debye-Ang):
   XX=            -13.0251   YY=            -13.0251   ZZ=             -6.7619
   XY=              0.0000   XZ=              0.0000   YZ=              0.0000
 Traceless Quadrupole moment (field-independent basis, Debye-Ang):
   XX=             -2.0877   YY=             -2.0877   ZZ=              4.1755
   XY=              0.0000   XZ=              0.0000   YZ=              0.0000
 Octapole moment (field-independent basis, Debye-Ang**2):
  XXX=              0.0000  YYY=              0.0000  ZZZ=              0.0000  XYY=              0.0000
  XXY=              0.0000  XXZ=              0.0000  XZZ=              0.0000  YZZ=              0.0000
  YYZ=              0.0000  XYZ=              0.0000
 Hexadecapole moment (field-independent basis, Debye-Ang**3):
 XXXX=            -13.3542 YYYY=            -13.3542 ZZZZ=            -37.9600 XXXY=              0.0000
 XXXZ=              0.0000 YYYX=              0.0000 YYYZ=              0.0000 ZZZX=              0.0000
 ZZZY=              0.0000 XXYY=             -4.4514 XXZZ=            -11.6083 YYZZ=            -11.6083
 XXYZ=              0.0000 YYXZ=              0.0000 ZZXY=              0.0000
 N-N= 2.471718277835D+01 E-N=-2.284351462609D+02  KE= 7.653696743317D+01
 Symmetry AG   KE= 3.782942002708D+01
 Symmetry B1G  KE= 1.725888777053D-32
 Symmetry B2G  KE= 1.030855407377D-32
 Symmetry B3G  KE= 2.087273765147D-32
 Symmetry AU   KE= 1.028972152996D-32
 Symmetry B1U  KE= 3.427113521715D+01
 Symmetry B2U  KE= 2.218206094470D+00
 Symmetry B3U  KE= 2.218206094470D+00
 No NMR shielding tensors so no spin-rotation constants.
 Leave Link  601 at Fri Mar 20 15:33:04 2026, MaxMem=   536870912 cpu:         0.0
 (Enter C:\G09W\l9999.exe)
 1|1|UNPC-DESKTOP-GS7R1K3|FOpt|RB3LYP|6-31G(d)|C2H2|1172|20-Mar-2026|0|
 |#p opt freq B3LYP/6-31G(d)||acetylene rdkit||0,1|C,-0.5992758544,0.25
 38664714,0.0096943962|C,0.5992758544,0.1312145286,-0.0096945391|H,-1.6
 60242484,0.3624388569,0.0268576218|H,1.660242484,0.0226421431,-0.02685
 77647||Version=EM64W-G09RevD.01|State=1-SGG|HF=-77.3256462|RMSD=4.834e
 -009|RMSF=1.345e-006|Dipole=0.,0.,0.|Quadrupole=3.0548972,-1.5039285,-
 1.5509687,-0.4714576,-0.0745285,0.0076268|PG=D*H [C*(H1C1.C1H1)]||@


 A SCIENTIST IS SOMEONE WHOSE CURIOSITY SURVIVES
 EDUCATION'S ASSAULTS ON IT.
                          - SIR HERMANN BONDI
 Leave Link 9999 at Fri Mar 20 15:33:05 2026, MaxMem=   536870912 cpu:         0.0
 Job cpu time:       0 days  0 hours  0 minutes  9.0 seconds.
 File lengths (MBytes):  RWF=      5 Int=      0 D2E=      0 Chk=      1 Scr=      1
 Normal termination of Gaussian 09 at Fri Mar 20 15:33:05 2026.
 (Enter C:\G09W\l1.exe)
 Link1:  Proceeding to internal job step number  2.
 --------------------------------------------------------------------
 #P Geom=AllCheck Guess=TCheck SCRF=Check GenChk RB3LYP/6-31G(d) Freq
 --------------------------------------------------------------------
 1/10=4,29=7,30=1,38=1,40=1/1,3;
 2/12=2,40=1/2;
 3/5=1,6=6,7=1,11=2,14=-4,16=1,25=1,30=1,70=2,71=2,74=-5,116=1,140=1/1,2,3;
 4/5=101/1;
 5/5=2,98=1/2;
 8/6=4,10=90,11=11/1;
 11/6=1,8=1,9=11,15=111,16=1/1,2,10;
 10/6=1/2;
 6/7=2,8=2,9=2,10=2,18=1,28=1/1;
 7/8=1,10=1,25=1/1,2,3,16;
 1/10=4,30=1/3;
 99//99;
 Leave Link    1 at Fri Mar 20 15:33:05 2026, MaxMem=   536870912 cpu:         0.0
 (Enter C:\G09W\l101.exe)
 Structure from the checkpoint file:  "acetylene_rdkit.chk"
 ---------------
 acetylene rdkit
 ---------------
 Charge =  0 Multiplicity = 1
 Redundant internal coordinates found in file.
 C,0,-0.5992758544,0.2538664714,0.0096943962
 C,0,0.5992758544,0.1312145286,-0.0096945391
 H,0,-1.660242484,0.3624388569,0.0268576218
 H,0,1.660242484,0.0226421431,-0.0268577647
 Recover connectivity data from disk.
 NAtoms=      4 NQM=        4 NQMF=       0 NMMI=      0 NMMIF=      0
                NMic=       0 NMicF=      0.
                    Isotopes and Nuclear Properties:
 (Nuclear quadrupole moments (NQMom) in fm**2, nuclear magnetic moments (NMagM)
  in nuclear magnetons)

  Atom         1           2           3           4
 IAtWgt=          12          12           1           1
 AtmWgt=  12.0000000  12.0000000   1.0078250   1.0078250
 NucSpn=           0           0           1           1
 AtZEff=  -3.6000000  -3.6000000  -1.0000000  -1.0000000
 NQMom=    0.0000000   0.0000000   0.0000000   0.0000000
 NMagM=    0.0000000   0.0000000   2.7928460   2.7928460
 AtZNuc=   6.0000000   6.0000000   1.0000000   1.0000000
 Leave Link  101 at Fri Mar 20 15:33:05 2026, MaxMem=   536870912 cpu:         0.0
 (Enter C:\G09W\l103.exe)

 GradGradGradGradGradGradGradGradGradGradGradGradGradGradGradGradGradGrad
 Berny optimization.
 Initialization pass.
                           ----------------------------
                           !    Initial Parameters    !
                           ! (Angstroms and Degrees)  !
 --------------------------                            --------------------------
 ! Name  Definition              Value          Derivative Info.                !
 --------------------------------------------------------------------------------
 ! R1    R(1,2)                  1.205          calculate D2E/DX2 analytically  !
 ! R2    R(1,3)                  1.0666         calculate D2E/DX2 analytically  !
 ! R3    R(2,4)                  1.0666         calculate D2E/DX2 analytically  !
 ! A1    L(2,1,3,-3,-1)        180.0            calculate D2E/DX2 analytically  !
 ! A2    L(1,2,4,-3,-1)        180.0            calculate D2E/DX2 analytically  !
 ! A3    L(2,1,3,-2,-2)        180.0            calculate D2E/DX2 analytically  !
 ! A4    L(1,2,4,-2,-2)        180.0            calculate D2E/DX2 analytically  !
 --------------------------------------------------------------------------------
 Trust Radius=3.00D-01 FncErr=1.00D-07 GrdErr=1.00D-07
 Number of steps in this run=      2 maximum allowed number of steps=      2.
 GradGradGradGradGradGradGradGradGradGradGradGradGradGradGradGradGradGrad

 Leave Link  103 at Fri Mar 20 15:33:06 2026, MaxMem=   536870912 cpu:         1.0
 (Enter C:\G09W\l202.exe)
                          Input orientation:                          
 ---------------------------------------------------------------------
 Center     Atomic      Atomic             Coordinates (Angstroms)
 Number     Number       Type             X           Y           Z
 ---------------------------------------------------------------------
      1          6           0       -0.599276    0.253866    0.009694
      2          6           0        0.599276    0.131215   -0.009695
      3          1           0       -1.660242    0.362439    0.026858
      4          1           0        1.660242    0.022642   -0.026858
 ---------------------------------------------------------------------
                    Distance matrix (angstroms):
                    1          2          3          4
     1  C    0.000000
     2  C    1.204967   0.000000
     3  H    1.066646   2.271613   0.000000
     4  H    2.271613   1.066646   3.338258   0.000000
 Stoichiometry    C2H2
 Framework group  D*H[C*(HC.CH)]
 Deg. of freedom     2
 Full point group                 D*H     NOp   8
 RotChk:  IX=0 Diff= 2.38D-16
 Largest Abelian subgroup         D2H     NOp   8
 Largest concise Abelian subgroup C2      NOp   2
                         Standard orientation:                         
 ---------------------------------------------------------------------
 Center     Atomic      Atomic             Coordinates (Angstroms)
 Number     Number       Type             X           Y           Z
 ---------------------------------------------------------------------
      1          6           0        0.000000    0.000000    0.602484
      2          6           0        0.000000    0.000000   -0.602484
      3          1           0        0.000000    0.000000    1.669129
      4          1           0        0.000000    0.000000   -1.669129
 ---------------------------------------------------------------------
 Rotational constants (GHZ):      0.0000000     35.2739503     35.2739503
 Leave Link  202 at Fri Mar 20 15:33:06 2026, MaxMem=   536870912 cpu:         0.0
 (Enter C:\G09W\l301.exe)
 Standard basis: 6-31G(d) (6D, 7F)
 Ernie: Thresh=  0.10000D-02 Tol=  0.10000D-05 Strict=F.
 There are    10 symmetry adapted cartesian basis functions of AG  symmetry.
 There are     1 symmetry adapted cartesian basis functions of B1G symmetry.
 There are     3 symmetry adapted cartesian basis functions of B2G symmetry.
 There are     3 symmetry adapted cartesian basis functions of B3G symmetry.
 There are     1 symmetry adapted cartesian basis functions of AU  symmetry.
 There are    10 symmetry adapted cartesian basis functions of B1U symmetry.
 There are     3 symmetry adapted cartesian basis functions of B2U symmetry.
 There are     3 symmetry adapted cartesian basis functions of B3U symmetry.
 There are    10 symmetry adapted basis functions of AG  symmetry.
 There are     1 symmetry adapted basis functions of B1G symmetry.
 There are     3 symmetry adapted basis functions of B2G symmetry.
 There are     3 symmetry adapted basis functions of B3G symmetry.
 There are     1 symmetry adapted basis functions of AU  symmetry.
 There are    10 symmetry adapted basis functions of B1U symmetry.
 There are     3 symmetry adapted basis functions of B2U symmetry.
 There are     3 symmetry adapted basis functions of B3U symmetry.
    34 basis functions,    64 primitive gaussians,    34 cartesian basis functions
     7 alpha electrons        7 beta electrons
       nuclear repulsion energy        24.7171827783 Hartrees.
 IExCor=  402 DFT=T Ex+Corr=B3LYP ExCW=0 ScaHFX=  0.200000
 ScaDFX=  0.800000  0.720000  1.000000  0.810000 ScalE2=  1.000000  1.000000
 IRadAn=      0 IRanWt=     -1 IRanGd=            0 ICorTp=0 IEmpDi=  4
 NAtoms=    4 NActive=    4 NUniq=    2 SFac= 4.00D+00 NAtFMM=   60 NAOKFM=F Big=F
 Integral buffers will be    131072 words long.
 Raffenetti 2 integral format.
 Two-electron integral symmetry is turned on.
 Leave Link  301 at Fri Mar 20 15:33:06 2026, MaxMem=   536870912 cpu:         0.0
 (Enter C:\G09W\l302.exe)
 NPDir=0 NMtPBC=     1 NCelOv=     1 NCel=       1 NClECP=     1 NCelD=      1
         NCelK=      1 NCelE2=     1 NClLst=     1 CellRange=     0.0.
 One-electron integrals computed using PRISM.
 One-electron integral symmetry used in STVInt
 NBasis=    34 RedAO= T EigKep=  1.45D-03  NBF=    10     1     3     3     1    10     3     3
 NBsUse=    34 1.00D-06 EigRej= -1.00D+00 NBFU=    10     1     3     3     1    10     3     3
 Precomputing XC quadrature grid using
 IXCGrd= 4 IRadAn=           0 IRanWt=          -1 IRanGd=           0 AccXCQ= 0.00D+00.
 Generated NRdTot=       0 NPtTot=           0 NUsed=           0 NTot=          32
 NSgBfM=    34    34    34    34    34 MxSgAt=     4 MxSgA2=     4.
 Leave Link  302 at Fri Mar 20 15:33:06 2026, MaxMem=   536870912 cpu:         0.0
 (Enter C:\G09W\l303.exe)
 DipDrv:  MaxL=1.
 Leave Link  303 at Fri Mar 20 15:33:06 2026, MaxMem=   536870912 cpu:         0.0
 (Enter C:\G09W\l401.exe)
 Initial guess from the checkpoint file:  "acetylene_rdkit.chk"
 B after Tr=     0.000000    0.000000    0.000000
         Rot=    1.000000    0.000000    0.000000    0.000000 Ang=   0.00 deg.
 Guess basis will be translated and rotated to current coordinates.
 JPrj=2 DoOrth=T DoCkMO=T.
 Initial guess orbital symmetries:
       Occupied  (SGG) (SGU) (SGG) (SGU) (SGG) (PIU) (PIU)
       Virtual   (PIG) (PIG) (SGU) (SGG) (SGU) (SGG) (PIU) (PIU)
                 (PIG) (PIG) (SGU) (SGG) (SGG) (SGU) (SGU) (PIU)
                 (PIU) (DLTG) (DLTG) (DLTU) (DLTU) (SGG) (PIG)
                 (PIG) (SGU) (SGG) (SGU)
 The electronic state of the initial guess is 1-SGG.
 Leave Link  401 at Fri Mar 20 15:33:06 2026, MaxMem=   536870912 cpu:         0.0
 (Enter C:\G09W\l502.exe)
 Closed shell SCF:
 Using DIIS extrapolation, IDIIS=  1040.
 Integral symmetry usage will be decided dynamically.
 Keep R1 ints in memory in symmetry-blocked form, NReq=1063162.
 IVT=       22626 IEndB=       22626 NGot=   536870912 MDV=   536818445
 LenX=   536818445 LenY=   536816848
 Requested convergence on RMS density matrix=1.00D-08 within 128 cycles.
 Requested convergence on MAX density matrix=1.00D-06.
 Requested convergence on             energy=1.00D-06.
 No special actions if energy rises.
 FoFCou: FMM=F IPFlag=           0 FMFlag=           0 FMFlg1=           0
         NFxFlg=           0 DoJE=F BraDBF=F KetDBF=F FulRan=T
         wScrn=  0.000000 ICntrl=     600 IOpCl=  0 I1Cent=           0 NGrid=           0
         NMat0=    1 NMatS0=    595 NMatT0=    0 NMatD0=    1 NMtDS0=    0 NMtDT0=    0
 Petite list used in FoFCou.

 Cycle   1  Pass 1  IDiag  1:
 E= -77.3256461805534    
 DIIS: error= 1.69D-09 at cycle   1 NSaved=   1.
 NSaved= 1 IEnMin= 1 EnMin= -77.3256461805534     IErMin= 1 ErrMin= 1.69D-09
 ErrMax= 1.69D-09  0.00D+00 EMaxC= 1.00D-01 BMatC= 6.11D-17 BMatP= 6.11D-17
 IDIUse=1 WtCom= 1.00D+00 WtEn= 0.00D+00
 Coeff-Com:  0.100D+01
 Coeff:      0.100D+01
 Gap=     0.334 Goal=   None    Shift=    0.000
 RMSDP=3.46D-10 MaxDP=2.96D-09              OVMax= 3.72D-09

 SCF Done:  E(RB3LYP) =  -77.3256461806     A.U. after    1 cycles
            NFock=  1  Conv=0.35D-09     -V/T= 2.0103
 KE= 7.653696737398D+01 PE=-2.284351462017D+02 EE= 4.985534986883D+01
 Leave Link  502 at Fri Mar 20 15:33:07 2026, MaxMem=   536870912 cpu:         0.0
 (Enter C:\G09W\l801.exe)
 DoSCS=F DFT=T ScalE2(SS,OS)=  1.000000  1.000000
 Range of M.O.s used for correlation:     1    34
 NBasis=    34 NAE=     7 NBE=     7 NFC=     0 NFV=     0
 NROrb=     34 NOA=     7 NOB=     7 NVA=    27 NVB=    27

 **** Warning!!: The largest alpha MO coefficient is  0.14620138D+02

 Leave Link  801 at Fri Mar 20 15:33:07 2026, MaxMem=   536870912 cpu:         0.0
 (Enter C:\G09W\l1101.exe)
 Using compressed storage, NAtomX=     4.
 Will process      5 centers per pass.
 Leave Link 1101 at Fri Mar 20 15:33:07 2026, MaxMem=   536870912 cpu:         0.0
 (Enter C:\G09W\l1102.exe)
 Symmetrizing basis deriv contribution to polar:
 IMax=3 JMax=2 DiffMx= 0.00D+00
 Leave Link 1102 at Fri Mar 20 15:33:07 2026, MaxMem=   536870912 cpu:         0.0
 (Enter C:\G09W\l1110.exe)
 Forming Gx(P) for the SCF density, NAtomX=     4.
 Integral derivatives from FoFJK, PRISM(SPDF).
 Do as many integral derivatives as possible in FoFJK.
 G2DrvN: MDV=     536870776.
 G2DrvN: will do     5 centers at a time, making    1 passes.
 Calling FoFCou, ICntrl=  3107 FMM=F I1Cent=   0 AccDes= 0.00D+00.
 FoFJK:  IHMeth= 1 ICntrl=    3107 DoSepK=F KAlg= 0 I1Cent=   0 FoldK=F
 IRaf=         0 NMat=   1 IRICut=       1 DoRegI=T DoRafI=F ISym2E= 1.
 FoFCou: FMM=F IPFlag=           0 FMFlag=      100000 FMFlg1=           0
         NFxFlg=           0 DoJE=F BraDBF=F KetDBF=F FulRan=T
         wScrn=  0.000000 ICntrl=    3107 IOpCl=  0 I1Cent=           0 NGrid=           0
         NMat0=    1 NMatS0=      1 NMatT0=    0 NMatD0=    1 NMtDS0=    0 NMtDT0=    0
 Petite list used in FoFCou.
 End of G2Drv F.D. properties file   721 does not exist.
 End of G2Drv F.D. properties file   722 does not exist.
 End of G2Drv F.D. properties file   788 does not exist.
 Leave Link 1110 at Fri Mar 20 15:33:08 2026, MaxMem=   536870912 cpu:         1.0
 (Enter C:\G09W\l1002.exe)
 Minotr:  Closed shell wavefunction.
          IDoAtm=1111
          Direct CPHF calculation.
          Differentiating once with respect to electric field.
                with respect to dipole field.
          Differentiating once with respect to nuclear coordinates.
          Using symmetry in CPHF.
          Requested convergence is 1.0D-08 RMS, and 1.0D-07 maximum.
          Secondary convergence is 1.0D-12 RMS, and 1.0D-12 maximum.
          NewPWx=T KeepS1=F KeepF1=F KeepIn=T MapXYZ=F SortEE=F KeepMc=T.
[...]
 Symmetry B1U  KE= 3.427113520053D+01
 Symmetry B2U  KE= 2.218206086092D+00
 Symmetry B3U  KE= 2.218206086092D+00
  Exact polarizability:   7.863   0.000   7.863   0.000   0.000  27.848
 Approx polarizability:   9.711   0.000   9.711   0.000   0.000  50.810
 No NMR shielding tensors so no spin-rotation constants.
 Leave Link  601 at Fri Mar 20 15:33:09 2026, MaxMem=   536870912 cpu:         0.0
 (Enter C:\G09W\l701.exe)
 Compute integral second derivatives.
 ... and contract with generalized density number  0.
 Leave Link  701 at Fri Mar 20 15:33:09 2026, MaxMem=   536870912 cpu:         0.0
 (Enter C:\G09W\l702.exe)
 L702 exits ... SP integral derivatives will be done elsewhere.
 Leave Link  702 at Fri Mar 20 15:33:09 2026, MaxMem=   536870912 cpu:         0.0
 (Enter C:\G09W\l703.exe)
 Compute integral second derivatives, UseDBF=F ICtDFT=           0.
 Integral derivatives from FoFJK, PRISM(SPDF).
 Calling FoFJK, ICntrl=    100127 FMM=F ISym2X=1 I1Cent= 0 IOpClX= 0 NMat=1 NMatS=1 NMatT=0.
 FoFJK:  IHMeth= 1 ICntrl=  100127 DoSepK=F KAlg= 0 I1Cent=   0 FoldK=F
 IRaf=         0 NMat=   1 IRICut=       1 DoRegI=T DoRafI=F ISym2E= 1.
 FoFCou: FMM=F IPFlag=           0 FMFlag=      100000 FMFlg1=         800
         NFxFlg=           0 DoJE=F BraDBF=F KetDBF=F FulRan=T
         wScrn=  0.000000 ICntrl=  100127 IOpCl=  0 I1Cent=           0 NGrid=           0
         NMat0=    1 NMatS0=      1 NMatT0=    0 NMatD0=    1 NMtDS0=    0 NMtDT0=    0
 Petite list used in FoFCou.
 Leave Link  703 at Fri Mar 20 15:33:10 2026, MaxMem=   536870912 cpu:         1.0
 (Enter C:\G09W\l716.exe)
 Dipole        = 4.12622926D-17 1.38005641D-17 5.60662627D-15
 Polarizability= 7.86319439D+00 5.22500317D-12 7.86319439D+00
                -3.07464049D-10-9.20276980D-13 2.78479757D+01
 Full mass-weighted force constant matrix:
 Low frequencies ---   -8.9856   -8.9856    0.0007    0.0007    0.0010  534.8903
 Low frequencies ---  534.8903  775.2268  775.2268
 Diagonal vibrational polarizability:
        3.6297770       3.6297770       0.1737746
 Harmonic frequencies (cm**-1), IR intensities (KM/Mole), Raman scattering
 activities (A**4/AMU), depolarization ratios for plane and unpolarized
 incident light, reduced masses (AMU), force constants (mDyne/A),
 and normal coordinates:
                      1                      2                      3
                     PIG                    PIG                    PIU
 Frequencies --    534.8903               534.8903               775.2268
 Red. masses --      1.5724                 1.5724                 1.0848
 Frc consts  --      0.2651                 0.2651                 0.3841
 IR Inten    --      0.0000                 0.0000                81.0596
  Atom  AN      X      Y      Z        X      Y      Z        X      Y      Z
     1   6     0.16   0.00   0.00     0.00   0.16   0.00     0.00   0.06   0.00
     2   6    -0.16   0.00   0.00     0.00  -0.16   0.00     0.00   0.06   0.00
     3   1    -0.69   0.00   0.00     0.00  -0.69   0.00     0.00  -0.70   0.00
     4   1     0.69   0.00   0.00     0.00   0.69   0.00     0.00  -0.70   0.00
                      4                      5                      6
                     PIU                    SGG                    SGU
 Frequencies --    775.2268              2088.1579              3441.5560
 Red. masses --      1.0848                 3.8255                 1.0848
 Frc consts  --      0.3841                 9.8279                 7.5703
 IR Inten    --     81.0596                 0.0000                76.4826
  Atom  AN      X      Y      Z        X      Y      Z        X      Y      Z
     1   6     0.06   0.00   0.00     0.00   0.00   0.36     0.00   0.00   0.06
     2   6     0.06   0.00   0.00     0.00   0.00  -0.36     0.00   0.00   0.06
     3   1    -0.70   0.00   0.00     0.00   0.00   0.61     0.00   0.00  -0.70
     4   1    -0.70   0.00   0.00     0.00   0.00  -0.61     0.00   0.00  -0.70
                      7
                     SGG
 Frequencies --   3541.7316
 Red. masses --      1.2283
 Frc consts  --      9.0776
 IR Inten    --      0.0000
  Atom  AN      X      Y      Z
     1   6     0.00   0.00  -0.10
     2   6     0.00   0.00   0.10
     3   1     0.00   0.00   0.70
     4   1     0.00   0.00  -0.70

 -------------------
 - Thermochemistry -
 -------------------
 Temperature   298.150 Kelvin.  Pressure   1.00000 Atm.
 Atom     1 has atomic number  6 and mass  12.00000
 Atom     2 has atomic number  6 and mass  12.00000
 Atom     3 has atomic number  1 and mass   1.00783
 Atom     4 has atomic number  1 and mass   1.00783
 Molecular mass:    26.01565 amu.
 Principal axes and moments of inertia in atomic units:
                           1         2         3
     Eigenvalues --     0.00000  51.16357  51.16357
           X            0.00000   0.69511   0.71891
           Y            0.00000   0.71891  -0.69511
           Z            1.00000   0.00000   0.00000
 This molecule is a prolate symmetric top.
 Rotational symmetry number  2.
 Rotational temperature (Kelvin)      1.69288
 Rotational constant (GHZ):          35.273950
 Zero-point vibrational energy      69931.8 (Joules/Mol)
                                   16.71409 (Kcal/Mol)
 Warning -- explicit consideration of   2 degrees of freedom as
           vibrations may cause significant error
 Vibrational temperatures:    769.59   769.59  1115.38  1115.38  3004.39
          (Kelvin)           4951.63  5095.76
 
 Zero-point correction=                           0.026636 (Hartree/Particle)
 Thermal correction to Energy=                    0.029567
 Thermal correction to Enthalpy=                  0.030511
 Thermal correction to Gibbs Free Energy=         0.007610
 Sum of electronic and zero-point Energies=            -77.299011
 Sum of electronic and thermal Energies=               -77.296079
 Sum of electronic and thermal Enthalpies=             -77.295135
 Sum of electronic and thermal Free Energies=          -77.318037
 
                     E (Thermal)             CV                S
                      KCal/Mol        Cal/Mol-Kelvin    Cal/Mol-Kelvin
 Total                   18.554              8.707             48.201
 Electronic               0.000              0.000              0.000
 Translational            0.889              2.981             35.704
 Rotational               0.592              1.987             10.886
 Vibrational             17.073              3.739              1.611
 Vibration     1          0.890              1.173              0.576
 Vibration     2          0.890              1.173              0.576
                       Q            Log10(Q)             Ln(Q)
 Total Bot       0.316097D-03         -3.500180         -8.059462
 Total V=0       0.564056D+09          8.751322         20.150664
 Vib (Bot)       0.688232D-12        -12.162265        -28.004651
 Vib (Bot)    1  0.297630D+00         -0.526323         -1.211904
 Vib (Bot)    2  0.297630D+00         -0.526323         -1.211904
 Vib (V=0)       0.122811D+01          0.089237          0.205475
 Vib (V=0)    1  0.108188D+01          0.034179          0.078700
 Vib (V=0)    2  0.108188D+01          0.034179          0.078700
 Electronic      0.100000D+01          0.000000          0.000000
 Translational   0.521564D+07          6.717307         15.467172
 Rotational      0.880600D+02          1.944778          4.478018
 
                                                           acetylene rdkit
                                                             IR Spectrum
 
     3   3                                                2                                                                          
     5   4                                                0                                              7       5                   
     4   4                                                8                                              7       3                   
     2   2                                                8                                              5       5                   
 
         X                                                                                               X                           
         X                                                                                               X                           
         X                                                                                               X                           
         X                                                                                               X                           
         X                                                                                               X                           
         X                                                                                               X                           
         X                                                                                               X                           
         X                                                                                               X                           
         X                                                                                               X                           
                                                                                                         X                           
                                                                                                         X                           
                                                                                                         X                           
                                                                                                         X                           
                                                                                                         X                           
                                                                                                         X                           
                                                                                                         X                           
                                                                                                         X                           
                                                                                                         X                           
                                                                                                         X                           
                                                                                                         X                           
 
 ***** Axes restored to original set *****
 -------------------------------------------------------------------
 Center     Atomic                   Forces (Hartrees/Bohr)
 Number     Number              X              Y              Z
 -------------------------------------------------------------------
      1        6          -0.000002588    0.000000265    0.000000042
      2        6           0.000002588   -0.000000265   -0.000000042
      3        1           0.000002012   -0.000000206   -0.000000033
      4        1          -0.000002012    0.000000206    0.000000033
 -------------------------------------------------------------------
 Cartesian Forces:  Max     0.000002588 RMS     0.000001345
 Force constants in Cartesian coordinates: 
                1             2             3             4             5 
      1  0.154628D+01
      2 -0.154551D+00  0.518296D-01
      3 -0.244316D-01  0.250017D-02  0.364091D-01
      4 -0.113375D+01  0.114499D+00  0.181001D-01  0.154628D+01
      5  0.114499D+00 -0.265857D-01 -0.185224D-02 -0.154551D+00  0.518296D-01
      6  0.181001D-01 -0.185224D-02 -0.151615D-01 -0.244316D-01  0.250017D-02
      7 -0.417829D+00  0.407352D-01  0.643946D-02  0.529195D-02 -0.682734D-03
      8  0.407352D-01 -0.239340D-01 -0.658972D-03 -0.682734D-03 -0.130985D-02
      9  0.643946D-02 -0.658972D-03 -0.198696D-01 -0.107927D-03  0.110446D-04
     10  0.529195D-02 -0.682734D-03 -0.107927D-03 -0.417829D+00  0.407352D-01
     11 -0.682734D-03 -0.130985D-02  0.110446D-04  0.407352D-01 -0.239340D-01
     12 -0.107927D-03  0.110446D-04 -0.137797D-02  0.643946D-02 -0.658972D-03
                6             7             8             9            10 
      6  0.364091D-01
      7 -0.107927D-03  0.412722D+00
      8  0.110446D-04 -0.408139D-01  0.180670D-01
      9 -0.137797D-02 -0.645189D-02  0.660245D-03  0.139947D-01
     10  0.643946D-02 -0.185782D-03  0.761419D-03  0.120366D-03  0.412722D+00
     11 -0.658972D-03  0.761419D-03  0.717687D-02 -0.123175D-04 -0.408139D-01
     12 -0.198696D-01  0.120366D-03 -0.123175D-04  0.725284D-02 -0.645189D-02
               11            12 
     11  0.180670D-01
     12  0.660245D-03  0.139947D-01
 FormGI is forming the generalized inverse of G from B-inverse, IUseBI=4.
 Force constants in internal coordinates: 
                1             2             3             4             5 
      1  0.113529D+01
      2 -0.509791D-02  0.417003D+00
      3 -0.509791D-02  0.265648D-03  0.417003D+00
      4  0.000000D+00  0.000000D+00  0.000000D+00  0.564093D-01
      5  0.000000D+00  0.000000D+00  0.000000D+00 -0.294756D-01  0.564093D-01
      6  0.000000D+00  0.000000D+00  0.000000D+00  0.924147D-04 -0.482896D-04
      7  0.000000D+00  0.000000D+00  0.000000D+00 -0.482896D-04  0.924147D-04
                6             7 
      6  0.558393D-01
      7 -0.291778D-01  0.558393D-01
 Leave Link  716 at Fri Mar 20 15:33:10 2026, MaxMem=   536870912 cpu:         0.0
 (Enter C:\G09W\l103.exe)

 GradGradGradGradGradGradGradGradGradGradGradGradGradGradGradGradGradGrad
 Berny optimization.
 Red2BG is reusing G-inverse.
 Internal  Forces:  Max     0.000002022 RMS     0.000001103
 Search for a local minimum.
 Step number   1 out of a maximum of    2
 All quantities printed in internal units (Hartrees-Bohrs-Radians)
 Second derivative matrix not updated -- analytic derivatives used.
 The second derivative matrix:
                          R1        R2        R3        A1        A2
           R1           1.13529
           R2          -0.00510   0.41700
           R3          -0.00510   0.00027   0.41700
           A1           0.00000   0.00000   0.00000   0.05641
           A2           0.00000   0.00000   0.00000  -0.02948   0.05641
           A3           0.00000   0.00000   0.00000   0.00009  -0.00005
           A4           0.00000   0.00000   0.00000  -0.00005   0.00009
                          A3        A4
           A3           0.05584
           A4          -0.02918   0.05584
 ITU=  0
     Eigenvalues ---    0.02665   0.02694   0.08499   0.08591   0.41674
     Eigenvalues ---    0.41720   1.13537
 Angle between quadratic step and forces=   7.55 degrees.
 Linear search not attempted -- first point.
 Iteration  1 RMS(Cart)=  0.00000247 RMS(Int)=  0.00000000
 Iteration  2 RMS(Cart)=  0.00000000 RMS(Int)=  0.00000001
 ITry= 1 IFail=0 DXMaxC= 4.58D-06 DCOld= 1.00D+10 DXMaxT= 3.00D-01 DXLimC= 3.00D+00 Rises=F
 ClnCor:  largest displacement from symmetrization is 1.03D-11 for atom     1.
 Variable       Old X    -DE/DX   Delta X   Delta X   Delta X     New X
                                 (Linear)    (Quad)   (Total)
    R1        2.27706   0.00000   0.00000   0.00000   0.00000   2.27706
    R2        2.01567   0.00000   0.00000   0.00000   0.00000   2.01566
    R3        2.01567   0.00000   0.00000   0.00000   0.00000   2.01566
    A1        3.14159   0.00000   0.00000   0.00000   0.00000   3.14159
    A2        3.14159   0.00000   0.00000   0.00000   0.00000   3.14159
    A3        3.14159   0.00000   0.00000   0.00000   0.00000   3.14159
    A4        3.14159   0.00000   0.00000   0.00000   0.00000   3.14159
         Item               Value     Threshold  Converged?
 Maximum Force            0.000002     0.000450     YES
 RMS     Force            0.000001     0.000300     YES
 Maximum Displacement     0.000005     0.001800     YES
 RMS     Displacement     0.000002     0.001200     YES
 Predicted change in Energy=-9.926088D-12
 Optimization completed.
    -- Stationary point found.
                           ----------------------------
                           !   Optimized Parameters   !
                           ! (Angstroms and Degrees)  !
 --------------------------                            --------------------------
 ! Name  Definition              Value          Derivative Info.                !
 --------------------------------------------------------------------------------
 ! R1    R(1,2)                  1.205          -DE/DX =    0.0                 !
 ! R2    R(1,3)                  1.0666         -DE/DX =    0.0                 !
 ! R3    R(2,4)                  1.0666         -DE/DX =    0.0                 !
 ! A1    L(2,1,3,-3,-1)        180.0            -DE/DX =    0.0                 !
 ! A2    L(1,2,4,-3,-1)        180.0            -DE/DX =    0.0                 !
 ! A3    L(2,1,3,-2,-2)        180.0            -DE/DX =    0.0                 !
 ! A4    L(1,2,4,-2,-2)        180.0            -DE/DX =    0.0                 !
 --------------------------------------------------------------------------------
 GradGradGradGradGradGradGradGradGradGradGradGradGradGradGradGradGradGrad

 Leave Link  103 at Fri Mar 20 15:33:10 2026, MaxMem=   536870912 cpu:         0.0
 (Enter C:\G09W\l9999.exe)
 1|1|UNPC-DESKTOP-GS7R1K3|Freq|RB3LYP|6-31G(d)|C2H2|1172|20-Mar-2026|0|
 |#P Geom=AllCheck Guess=TCheck SCRF=Check GenChk RB3LYP/6-31G(d) Freq|
 |acetylene rdkit||0,1|C,-0.5992758544,0.2538664714,0.0096943962|C,0.59
 92758544,0.1312145286,-0.0096945391|H,-1.660242484,0.3624388569,0.0268
 576218|H,1.660242484,0.0226421431,-0.0268577647||Version=EM64W-G09RevD
 .01|State=1-SGG|HF=-77.3256462|RMSD=3.460e-010|RMSF=1.345e-006|ZeroPoi
 nt=0.0266356|Thermal=0.0295673|Dipole=0.,0.,0.|DipoleDeriv=-0.1910327,
 -0.0005701,-0.0000901,-0.0005701,-0.1965457,0.0000092,-0.0000901,0.000
 0092,-0.1966026,-0.1910326,-0.0005701,-0.0000901,-0.0005701,-0.1965457
 ,0.0000092,-0.0000901,0.0000092,-0.1966026,0.1910326,0.0005701,0.00009
 01,0.0005701,0.1965457,-0.0000092,0.0000901,-0.0000092,0.1966026,0.191
 0326,0.0005701,0.0000901,0.0005701,0.1965457,-0.0000092,0.0000901,-0.0
 000092,0.1966026|Polar=27.6357405,-2.0233931,8.0702552,-0.3198599,0.03
 27324,7.8683688|PG=D*H [C*(H1C1.C1H1)]|NImag=0||1.54628320,-0.15455109
 ,0.05182957,-0.02443158,0.00250017,0.03640905,-1.13374658,0.11449865,0
 .01810005,1.54628320,0.11449865,-0.02658572,-0.00185224,-0.15455109,0.
 05182957,0.01810005,-0.00185224,-0.01516148,-0.02443158,0.00250017,0.0
 3640905,-0.41782856,0.04073518,0.00643946,0.00529195,-0.00068273,-0.00
 010793,0.41272240,0.04073518,-0.02393400,-0.00065897,-0.00068273,-0.00
 130985,0.00001104,-0.04081386,0.01806698,0.00643946,-0.00065897,-0.019
 86960,-0.00010793,0.00001104,-0.00137797,-0.00645189,0.00066024,0.0139
 9473,0.00529195,-0.00068273,-0.00010793,-0.41782856,0.04073518,0.00643
 946,-0.00018578,0.00076142,0.00012037,0.41272240,-0.00068273,-0.001309
 85,0.00001104,0.04073518,-0.02393400,-0.00065897,0.00076142,0.00717687
 ,-0.00001232,-0.04081386,0.01806698,-0.00010793,0.00001104,-0.00137797
 ,0.00643946,-0.00065897,-0.01986960,0.00012037,-0.00001232,0.00725284,
 -0.00645189,0.00066024,0.01399473||0.00000259,-0.00000026,-0.00000004,
 -0.00000259,0.00000026,0.00000004,-0.00000201,0.00000021,0.00000003,0.
 00000201,-0.00000021,-0.00000003|||@


 A SCIENTIST IS SOMEONE WHOSE CURIOSITY SURVIVES
 EDUCATION'S ASSAULTS ON IT.
                          - SIR HERMANN BONDI
 Job cpu time:       0 days  0 hours  0 minutes  5.0 seconds.
 File lengths (MBytes):  RWF=      5 Int=      0 D2E=      0 Chk=      1 Scr=      1
 Normal termination of Gaussian 09 at Fri Mar 20 15:33:10 2026.
