 Entering Gaussian System, Link 0=C:\G09W\g09.exe
 Input=cyclohexanol_rdkit.com
 Output=C:\workspace\delta_chem\data\raw\cyclohexanol\cyclohexanol_rdkit.out
 Initial command:
 C:\G09W\l1.exe ".\Gau-12964.inp" "C:\workspace\delta_chem\data\raw\cyclohexanol\cyclohexanol_rdkit.out" /scrdir=".\"
 Entering Link 1 = C:\G09W\l1.exe PID=     20788.
  
 Copyright (c) 1988,1990,1992,1993,1995,1998,2003,2009,2013,
            Gaussian, Inc.  All Rights Reserved.
  
 This is part of the Gaussian(R) 09 program.  It is based on
 the Gaussian(R) 03 system (copyright 2003, Gaussian, Inc.),
 the Gaussian(R) 98 system (copyright 1998, Gaussian, Inc.),
 the Gaussian(R) 94 system (copyright 1995, Gaussian, Inc.),
 the Gaussian 92(TM) system (copyright 1992, Gaussian, Inc.),
 the Gaussian 90(TM) system (copyright 1990, Gaussian, Inc.),
 the Gaussian 88(TM) system (copyright 1988, Gaussian, Inc.),
 the Gaussian 86(TM) system (copyright 1986, Carnegie Mellon
 University), and the Gaussian 82(TM) system (copyright 1983,
 Carnegie Mellon University). Gaussian is a federally registered
 trademark of Gaussian, Inc.
  
 This software contains proprietary and confidential information,
 including trade secrets, belonging to Gaussian, Inc.
  
 This software is provided under written license and may be
 used, copied, transmitted, or stored only in accord with that
 written license.
  
 The following legend is applicable only to US Government
 contracts under FAR:
  
                    RESTRICTED RIGHTS LEGEND
  
 Use, reproduction and disclosure by the US Government is
 subject to restrictions as set forth in subparagraphs (a)
 and (c) of the Commercial Computer Software - Restricted
 Rights clause in FAR 52.227-19.
  
 Gaussian, Inc.
 340 Quinnipiac St., Bldg. 40, Wallingford CT 06492
  
  
 ---------------------------------------------------------------
 Warning -- This program may not be used in any manner that
 competes with the business of Gaussian, Inc. or will provide
 assistance to any competitor of Gaussian, Inc.  The licensee
 of this program is prohibited from giving any competitor of
 Gaussian, Inc. access to this program.  By using this program,
 the user acknowledges that Gaussian, Inc. is engaged in the
 business of creating and licensing software in the field of
 computational chemistry and represents and warrants to the
 licensee that it is not a competitor of Gaussian, Inc. and that
 it will not use this program in any manner prohibited above.
 ---------------------------------------------------------------
  

 Cite this work as:
 Gaussian 09, Revision D.01,
 M. J. Frisch, G. W. Trucks, H. B. Schlegel, G. E. Scuseria, 
 M. A. Robb, J. R. Cheeseman, G. Scalmani, V. Barone, B. Mennucci, 
 G. A. Petersson, H. Nakatsuji, M. Caricato, X. Li, H. P. Hratchian, 
 A. F. Izmaylov, J. Bloino, G. Zheng, J. L. Sonnenberg, M. Hada, 
 M. Ehara, K. Toyota, R. Fukuda, J. Hasegawa, M. Ishida, T. Nakajima, 
 Y. Honda, O. Kitao, H. Nakai, T. Vreven, J. A. Montgomery, Jr., 
 J. E. Peralta, F. Ogliaro, M. Bearpark, J. J. Heyd, E. Brothers, 
 K. N. Kudin, V. N. Staroverov, T. Keith, R. Kobayashi, J. Normand, 
 K. Raghavachari, A. Rendell, J. C. Burant, S. S. Iyengar, J. Tomasi, 
 M. Cossi, N. Rega, J. M. Millam, M. Klene, J. E. Knox, J. B. Cross, 
 V. Bakken, C. Adamo, J. Jaramillo, R. Gomperts, R. E. Stratmann, 
 O. Yazyev, A. J. Austin, R. Cammi, C. Pomelli, J. W. Ochterski, 
 R. L. Martin, K. Morokuma, V. G. Zakrzewski, G. A. Voth, 
 P. Salvador, J. J. Dannenberg, S. Dapprich, A. D. Daniels, 
 O. Farkas, J. B. Foresman, J. V. Ortiz, J. Cioslowski, 
 and D. J. Fox, Gaussian, Inc., Wallingford CT, 2013.
 
 ******************************************
 Gaussian 09:  EM64W-G09RevD.01 13-Apr-2013
                19-Mar-2026 
 ******************************************
 %NProcShared=4
 Will use up to    4 processors via shared memory.
 %Mem=4GB
 %Chk=cyclohexanol_rdkit.chk
 ---------------------
 #p opt B3LYP/6-31G(d)
 ---------------------
 1/14=-1,18=20,19=15,26=3,38=1/1,3;
 2/9=110,12=2,17=6,18=5,40=1/2;
 3/5=1,6=6,7=1,11=2,16=1,25=1,30=1,71=1,74=-5/1,2,3;
 4//1;
 5/5=2,38=5/2;
 6/7=2,8=2,9=2,10=2,28=1/1;
 7//1,2,3,16;
 1/14=-1,18=20,19=15,26=3/3(2);
 2/9=110/2;
 99//99;
 2/9=110/2;
 3/5=1,6=6,7=1,11=2,16=1,25=1,30=1,71=1,74=-5/1,2,3;
 4/5=5,16=3,69=1/1;
 5/5=2,38=5/2;
 7//1,2,3,16;
 1/14=-1,18=20,19=15,26=3/3(-5);
 2/9=110/2;
 6/7=2,8=2,9=2,10=2,19=2,28=1/1;
 99/9=1/99;
 Leave Link    1 at Thu Mar 19 18:27:23 2026, MaxMem=   536870912 cpu:         0.0
 (Enter C:\G09W\l101.exe)
 ------------
 cyclohexanol
 ------------
 Symbolic Z-matrix:
 Charge =  0 Multiplicity = 1
 O                     1.84654   0.03062  -1.05831 
 C                     1.32567   0.18089   0.26081 
 C                     0.40254   1.3991    0.28729 
 C                    -0.87199   1.17526  -0.52737 
 C                    -1.6003   -0.09419  -0.09531 
 C                    -0.6843   -1.31376  -0.1431 
 C                     0.58854  -1.09378   0.6747 
 H                     2.44027  -0.73942  -1.05284 
 H                     2.17614   0.35362   0.9295 
 H                     0.92652   2.27365  -0.11602 
 H                     0.13082   1.62715   1.32515 
 H                    -1.53728   2.03849  -0.41206 
 H                    -0.62192   1.10792  -1.59323 
 H                    -1.98244   0.03453   0.92489 
 H                    -2.46872  -0.25962  -0.74282 
 H                    -1.21905  -2.1906    0.23931 
 H                    -0.42058  -1.53234  -1.1851 
 H                     1.24224  -1.9644    0.54629 
 H                     0.32731  -1.03312   1.73824 
 
 NAtoms=     19 NQM=       19 NQMF=       0 NMMI=      0 NMMIF=      0
                NMic=       0 NMicF=      0.
                    Isotopes and Nuclear Properties:
 (Nuclear quadrupole moments (NQMom) in fm**2, nuclear magnetic moments (NMagM)
  in nuclear magnetons)

  Atom         1           2           3           4           5           6           7           8           9          10
 IAtWgt=          16          12          12          12          12          12          12           1           1           1
 AtmWgt=  15.9949146  12.0000000  12.0000000  12.0000000  12.0000000  12.0000000  12.0000000   1.0078250   1.0078250   1.0078250
 NucSpn=           0           0           0           0           0           0           0           1           1           1
 AtZEff=   0.0000000   0.0000000   0.0000000   0.0000000   0.0000000   0.0000000   0.0000000   0.0000000   0.0000000   0.0000000
 NQMom=    0.0000000   0.0000000   0.0000000   0.0000000   0.0000000   0.0000000   0.0000000   0.0000000   0.0000000   0.0000000
 NMagM=    0.0000000   0.0000000   0.0000000   0.0000000   0.0000000   0.0000000   0.0000000   2.7928460   2.7928460   2.7928460
 AtZNuc=   8.0000000   6.0000000   6.0000000   6.0000000   6.0000000   6.0000000   6.0000000   1.0000000   1.0000000   1.0000000

  Atom        11          12          13          14          15          16          17          18          19
 IAtWgt=           1           1           1           1           1           1           1           1           1
 AtmWgt=   1.0078250   1.0078250   1.0078250   1.0078250   1.0078250   1.0078250   1.0078250   1.0078250   1.0078250
 NucSpn=           1           1           1           1           1           1           1           1           1
 AtZEff=   0.0000000   0.0000000   0.0000000   0.0000000   0.0000000   0.0000000   0.0000000   0.0000000   0.0000000
 NQMom=    0.0000000   0.0000000   0.0000000   0.0000000   0.0000000   0.0000000   0.0000000   0.0000000   0.0000000
 NMagM=    2.7928460   2.7928460   2.7928460   2.7928460   2.7928460   2.7928460   2.7928460   2.7928460   2.7928460
 AtZNuc=   1.0000000   1.0000000   1.0000000   1.0000000   1.0000000   1.0000000   1.0000000   1.0000000   1.0000000
 Leave Link  101 at Thu Mar 19 18:27:24 2026, MaxMem=   536870912 cpu:         1.0
 (Enter C:\G09W\l103.exe)

 GradGradGradGradGradGradGradGradGradGradGradGradGradGradGradGradGradGrad
 Berny optimization.
 Initialization pass.
                           ----------------------------
                           !    Initial Parameters    !
                           ! (Angstroms and Degrees)  !
 --------------------------                            --------------------------
 ! Name  Definition              Value          Derivative Info.                !
 --------------------------------------------------------------------------------
 ! R1    R(1,2)                  1.4262         estimate D2E/DX2                !
 ! R2    R(1,8)                  0.9724         estimate D2E/DX2                !
 ! R3    R(2,3)                  1.5287         estimate D2E/DX2                !
 ! R4    R(2,7)                  1.5295         estimate D2E/DX2                !
 ! R5    R(2,9)                  1.0956         estimate D2E/DX2                !
 ! R6    R(3,4)                  1.5291         estimate D2E/DX2                !
 ! R7    R(3,10)                 1.0964         estimate D2E/DX2                !
 ! R8    R(3,11)                 1.0968         estimate D2E/DX2                !
 ! R9    R(4,5)                  1.526          estimate D2E/DX2                !
 ! R10   R(4,12)                 1.0959         estimate D2E/DX2                !
 ! R11   R(4,13)                 1.0969         estimate D2E/DX2                !
 ! R12   R(5,6)                  1.526          estimate D2E/DX2                !
 ! R13   R(5,14)                 1.097          estimate D2E/DX2                !
 ! R14   R(5,15)                 1.0958         estimate D2E/DX2                !
 ! R15   R(6,7)                  1.5288         estimate D2E/DX2                !
 ! R16   R(6,16)                 1.0959         estimate D2E/DX2                !
 ! R17   R(6,17)                 1.0969         estimate D2E/DX2                !
 ! R18   R(7,18)                 1.0963         estimate D2E/DX2                !
 ! R19   R(7,19)                 1.0968         estimate D2E/DX2                !
 ! A1    A(2,1,8)              107.5328         estimate D2E/DX2                !
 ! A2    A(1,2,3)              108.6952         estimate D2E/DX2                !
 ! A3    A(1,2,7)              109.7852         estimate D2E/DX2                !
 ! A4    A(1,2,9)              107.3157         estimate D2E/DX2                !
 ! A5    A(3,2,7)              111.6175         estimate D2E/DX2                !
 ! A6    A(3,2,9)              109.424          estimate D2E/DX2                !
 ! A7    A(7,2,9)              109.8976         estimate D2E/DX2                !
 ! A8    A(2,3,4)              112.1755         estimate D2E/DX2                !
 ! A9    A(2,3,10)             109.9193         estimate D2E/DX2                !
 ! A10   A(2,3,11)             109.3708         estimate D2E/DX2                !
 ! A11   A(4,3,10)             108.6106         estimate D2E/DX2                !
 ! A12   A(4,3,11)             109.1519         estimate D2E/DX2                !
 ! A13   A(10,3,11)            107.4954         estimate D2E/DX2                !
 ! A14   A(3,4,5)              111.6379         estimate D2E/DX2                !
 ! A15   A(3,4,12)             109.55           estimate D2E/DX2                !
 ! A16   A(3,4,13)             109.6734         estimate D2E/DX2                !
 ! A17   A(5,4,12)             109.6167         estimate D2E/DX2                !
 ! A18   A(5,4,13)             109.4431         estimate D2E/DX2                !
 ! A19   A(12,4,13)            106.7983         estimate D2E/DX2                !
 ! A20   A(4,5,6)              111.6841         estimate D2E/DX2                !
 ! A21   A(4,5,14)             109.3878         estimate D2E/DX2                !
 ! A22   A(4,5,15)             109.6647         estimate D2E/DX2                !
 ! A23   A(6,5,14)             109.3904         estimate D2E/DX2                !
 ! A24   A(6,5,15)             109.6669         estimate D2E/DX2                !
 ! A25   A(14,5,15)            106.9282         estimate D2E/DX2                !
 ! A26   A(5,6,7)              111.5927         estimate D2E/DX2                !
 ! A27   A(5,6,16)             109.6097         estimate D2E/DX2                !
 ! A28   A(5,6,17)             109.4712         estimate D2E/DX2                !
 ! A29   A(7,6,16)             109.5552         estimate D2E/DX2                !
 ! A30   A(7,6,17)             109.6741         estimate D2E/DX2                !
 ! A31   A(16,6,17)            106.8197         estimate D2E/DX2                !
 ! A32   A(2,7,6)              112.1108         estimate D2E/DX2                !
 ! A33   A(2,7,18)             110.0455         estimate D2E/DX2                !
 ! A34   A(2,7,19)             109.3344         estimate D2E/DX2                !
 ! A35   A(6,7,18)             108.6342         estimate D2E/DX2                !
 ! A36   A(6,7,19)             109.1689         estimate D2E/DX2                !
 ! A37   A(18,7,19)            107.4289         estimate D2E/DX2                !
 ! D1    D(8,1,2,3)            179.1804         estimate D2E/DX2                !
 ! D2    D(8,1,2,7)            -58.4718         estimate D2E/DX2                !
 ! D3    D(8,1,2,9)             60.9354         estimate D2E/DX2                !
 ! D4    D(1,2,3,4)             68.2698         estimate D2E/DX2                !
 ! D5    D(1,2,3,10)           -52.6781         estimate D2E/DX2                !
 ! D6    D(1,2,3,11)          -170.4758         estimate D2E/DX2                !
 ! D7    D(7,2,3,4)            -52.9607         estimate D2E/DX2                !
 ! D8    D(7,2,3,10)          -173.9086         estimate D2E/DX2                !
 ! D9    D(7,2,3,11)            68.2937         estimate D2E/DX2                !
 ! D10   D(9,2,3,4)           -174.8259         estimate D2E/DX2                !
 ! D11   D(9,2,3,10)            64.2262         estimate D2E/DX2                !
 ! D12   D(9,2,3,11)           -53.5714         estimate D2E/DX2                !
 ! D13   D(1,2,7,6)            -67.5247         estimate D2E/DX2                !
 ! D14   D(1,2,7,18)            53.4974         estimate D2E/DX2                !
 ! D15   D(1,2,7,19)           171.2669         estimate D2E/DX2                !
 ! D16   D(3,2,7,6)             53.0705         estimate D2E/DX2                !
 ! D17   D(3,2,7,18)           174.0926         estimate D2E/DX2                !
 ! D18   D(3,2,7,19)           -68.1379         estimate D2E/DX2                !
 ! D19   D(9,2,7,6)            174.662          estimate D2E/DX2                !
 ! D20   D(9,2,7,18)           -64.316          estimate D2E/DX2                !
 ! D21   D(9,2,7,19)            53.4535         estimate D2E/DX2                !
 ! D22   D(2,3,4,5)             53.7486         estimate D2E/DX2                !
 ! D23   D(2,3,4,12)           175.3589         estimate D2E/DX2                !
 ! D24   D(2,3,4,13)           -67.7269         estimate D2E/DX2                !
 ! D25   D(10,3,4,5)           175.4481         estimate D2E/DX2                !
 ! D26   D(10,3,4,12)          -62.9416         estimate D2E/DX2                !
 ! D27   D(10,3,4,13)           53.9725         estimate D2E/DX2                !
 ! D28   D(11,3,4,5)           -67.6315         estimate D2E/DX2                !
 ! D29   D(11,3,4,12)           53.9788         estimate D2E/DX2                !
 ! D30   D(11,3,4,13)          170.8929         estimate D2E/DX2                !
 ! D31   D(3,4,5,6)            -54.3933         estimate D2E/DX2                !
 ! D32   D(3,4,5,14)            66.8515         estimate D2E/DX2                !
 ! D33   D(3,4,5,15)          -176.1766         estimate D2E/DX2                !
 ! D34   D(12,4,5,6)          -175.965          estimate D2E/DX2                !
 ! D35   D(12,4,5,14)          -54.7202         estimate D2E/DX2                !
 ! D36   D(12,4,5,15)           62.2517         estimate D2E/DX2                !
 ! D37   D(13,4,5,6)            67.2155         estimate D2E/DX2                !
 ! D38   D(13,4,5,14)         -171.5397         estimate D2E/DX2                !
 ! D39   D(13,4,5,15)          -54.5678         estimate D2E/DX2                !
 ! D40   D(4,5,6,7)             54.5135         estimate D2E/DX2                !
 ! D41   D(4,5,6,16)           176.0571         estimate D2E/DX2                !
 ! D42   D(4,5,6,17)           -67.0854         estimate D2E/DX2                !
 ! D43   D(14,5,6,7)           -66.7298         estimate D2E/DX2                !
 ! D44   D(14,5,6,16)           54.8138         estimate D2E/DX2                !
 ! D45   D(14,5,6,17)          171.6712         estimate D2E/DX2                !
 ! D46   D(15,5,6,7)           176.2955         estimate D2E/DX2                !
 ! D47   D(15,5,6,16)          -62.161          estimate D2E/DX2                !
 ! D48   D(15,5,6,17)           54.6965         estimate D2E/DX2                !
 ! D49   D(5,6,7,2)            -53.9635         estimate D2E/DX2                !
 ! D50   D(5,6,7,18)          -175.7962         estimate D2E/DX2                !
 ! D51   D(5,6,7,19)            67.3402         estimate D2E/DX2                !
 ! D52   D(16,6,7,2)          -175.5386         estimate D2E/DX2                !
 ! D53   D(16,6,7,18)           62.6287         estimate D2E/DX2                !
 ! D54   D(16,6,7,19)          -54.2349         estimate D2E/DX2                !
 ! D55   D(17,6,7,2)            67.518          estimate D2E/DX2                !
 ! D56   D(17,6,7,18)          -54.3147         estimate D2E/DX2                !
 ! D57   D(17,6,7,19)         -171.1783         estimate D2E/DX2                !
 --------------------------------------------------------------------------------
 Trust Radius=3.00D-01 FncErr=1.00D-07 GrdErr=1.00D-06
 Number of steps in this run=    114 maximum allowed number of steps=    114.
 GradGradGradGradGradGradGradGradGradGradGradGradGradGradGradGradGradGrad

 Leave Link  103 at Thu Mar 19 18:27:24 2026, MaxMem=   536870912 cpu:         0.0
 (Enter C:\G09W\l202.exe)
                          Input orientation:                          
 ---------------------------------------------------------------------
 Center     Atomic      Atomic             Coordinates (Angstroms)
 Number     Number       Type             X           Y           Z
 ---------------------------------------------------------------------
      1          8           0        1.846541    0.030617   -1.058306
      2          6           0        1.325665    0.180888    0.260809
      3          6           0        0.402542    1.399102    0.287285
      4          6           0       -0.871988    1.175264   -0.527374
      5          6           0       -1.600297   -0.094191   -0.095312
      6          6           0       -0.684301   -1.313761   -0.143099
      7          6           0        0.588538   -1.093781    0.674702
      8          1           0        2.440266   -0.739415   -1.052841
      9          1           0        2.176138    0.353618    0.929503
     10          1           0        0.926519    2.273650   -0.116019
     11          1           0        0.130818    1.627150    1.325148
     12          1           0       -1.537282    2.038487   -0.412060
     13          1           0       -0.621915    1.107924   -1.593230
     14          1           0       -1.982443    0.034531    0.924889
     15          1           0       -2.468720   -0.259615   -0.742822
     16          1           0       -1.219049   -2.190602    0.239307
     17          1           0       -0.420581   -1.532341   -1.185102
     18          1           0        1.242241   -1.964400    0.546287
     19          1           0        0.327311   -1.033123    1.738235
 ---------------------------------------------------------------------
                    Distance matrix (angstroms):
                    1          2          3          4          5
     1  O    0.000000
     2  C    1.426169   0.000000
     3  C    2.401770   1.528693   0.000000
     4  C    2.997083   2.537655   1.529117   0.000000
     5  C    3.581009   2.960362   2.527384   1.525984   0.000000
     6  C    3.008341   2.537140   2.953995   2.525498   1.526002
     7  C    2.418710   1.529524   2.529655   2.954097   2.526480
     8  H    0.972362   1.953195   3.243688   3.861753   4.202300
     9  H    2.040674   1.095578   2.156646   3.476876   3.938558
    10  H    2.601066   2.163555   1.096376   2.147159   3.462932
    11  H    3.342675   2.156884   1.096813   2.154451   2.824443
    12  H    3.987409   3.478490   2.158892   1.095932   2.156992
    13  H    2.745908   2.844279   2.161165   1.096868   2.155474
    14  H    4.312099   3.377277   2.820771   2.154867   1.097003
    15  H    4.336501   3.949516   3.472263   2.157510   1.095807
    16  H    4.001931   3.478505   3.939268   3.469482   2.156910
    17  H    2.756584   2.841687   3.382131   2.822676   2.155840
    18  H    2.630587   2.165807   3.476395   3.934489   3.462565
    19  H    3.355629   2.157156   2.833131   3.383530   2.821198
                    6          7          8          9         10
     6  C    0.000000
     7  C    1.528826   0.000000
     8  H    3.304606   2.557123   0.000000
     9  H    3.480336   2.163414   2.279073   0.000000
    10  H    3.932555   3.475495   3.499661   2.518171   0.000000
    11  H    3.386610   2.834793   4.072961   2.441670   1.768634
    12  H    3.469508   3.938434   4.893693   4.292792   2.492641
    13  H    2.823354   3.384703   3.616854   3.842169   2.436948
    14  H    2.154916   2.818798   4.906196   4.170807   3.815652
    15  H    2.157555   3.471604   4.942111   4.974679   4.282285
    16  H    1.095920   2.158693   4.143208   4.298456   4.965810
    17  H    1.096857   2.160909   2.971644   3.843351   4.176504
    18  H    2.147126   1.096264   2.343728   2.528285   4.301093
    19  H    2.154422   1.096823   3.512969   2.448522   3.838236
                   11         12         13         14         15
    11  H    0.000000
    12  H    2.443286   0.000000
    13  H    3.058289   1.760400   0.000000
    14  H    2.676287   2.449784   3.056817   0.000000
    15  H    3.820207   2.501650   2.450315   1.761887   0.000000
    16  H    4.192424   4.290774   3.820345   2.450308   2.500993
    17  H    4.072810   3.820396   2.679198   3.057215   2.451595
    18  H    3.839416   4.966617   4.182318   3.812827   4.282444
    19  H    2.699315   4.187513   4.072318   2.671400   3.817296
                   16         17         18         19
    16  H    0.000000
    17  H    1.760625   0.000000
    18  H    2.490653   2.439131   0.000000
    19  H    2.444948   3.058506   1.767799   0.000000
 Stoichiometry    C6H12O
 Framework group  C1[X(C6H12O)]
 Deg. of freedom    51
 Full point group                 C1      NOp   1
 Largest Abelian subgroup         C1      NOp   1
 Largest concise Abelian subgroup C1      NOp   1
                         Standard orientation:                         
 ---------------------------------------------------------------------
 Center     Atomic      Atomic             Coordinates (Angstroms)
 Number     Number       Type             X           Y           Z
 ---------------------------------------------------------------------
      1          8           0       -1.732441   -0.118979   -0.881902
      2          6           0       -1.153618   -0.090609    0.421216
      3          6           0       -0.236652   -1.303842    0.576595
      4          6           0        1.001145   -1.209889   -0.316282
      5          6           0        1.754793    0.098832   -0.097439
      6          6           0        0.843996    1.310367   -0.274402
      7          6           0       -0.391950    1.220651    0.620973
      8          1           0       -2.321266    0.651103   -0.957707
      9          1           0       -1.974082   -0.159075    1.144018
     10          1           0       -0.782809   -2.219854    0.322285
     11          1           0        0.080229   -1.388685    1.623203
     12          1           0        1.666403   -2.056305   -0.111150
     13          1           0        0.703791   -1.288321   -1.369159
     14          1           0        2.181711    0.108629    0.913036
     15          1           0        2.594102    0.162798   -0.799052
     16          1           0        1.399987    2.225625   -0.041556
     17          1           0        0.534876    1.385168   -1.324138
     18          1           0       -1.046179    2.072439    0.401343
     19          1           0       -0.083523    1.305250    1.670133
 ---------------------------------------------------------------------
 Rotational constants (GHZ):      3.5692907      2.6497319      1.9785560
 Leave Link  202 at Thu Mar 19 18:27:24 2026, MaxMem=   536870912 cpu:         0.0
 (Enter C:\G09W\l301.exe)
 Standard basis: 6-31G(d) (6D, 7F)
 Ernie: Thresh=  0.10000D-02 Tol=  0.10000D-05 Strict=F.
 There are   129 symmetry adapted cartesian basis functions of A   symmetry.
 There are   129 symmetry adapted basis functions of A   symmetry.
   129 basis functions,   244 primitive gaussians,   129 cartesian basis functions
    28 alpha electrons       28 beta electrons
       nuclear repulsion energy       335.3122762253 Hartrees.
 IExCor=  402 DFT=T Ex+Corr=B3LYP ExCW=0 ScaHFX=  0.200000
 ScaDFX=  0.800000  0.720000  1.000000  0.810000 ScalE2=  1.000000  1.000000
 IRadAn=      0 IRanWt=     -1 IRanGd=            0 ICorTp=0 IEmpDi=  4
 NAtoms=   19 NActive=   19 NUniq=   19 SFac= 1.00D+00 NAtFMM=   60 NAOKFM=F Big=F
 Integral buffers will be    131072 words long.
 Raffenetti 2 integral format.
 Two-electron integral symmetry is turned on.
 Leave Link  301 at Thu Mar 19 18:27:24 2026, MaxMem=   536870912 cpu:         0.0
 (Enter C:\G09W\l302.exe)
 NPDir=0 NMtPBC=     1 NCelOv=     1 NCel=       1 NClECP=     1 NCelD=      1
         NCelK=      1 NCelE2=     1 NClLst=     1 CellRange=     0.0.
 One-electron integrals computed using PRISM.
 NBasis=   129 RedAO= T EigKep=  3.36D-03  NBF=   129
 NBsUse=   129 1.00D-06 EigRej= -1.00D+00 NBFU=   129
 Precomputing XC quadrature grid using
 IXCGrd= 4 IRadAn=           0 IRanWt=          -1 IRanGd=           0 AccXCQ= 0.00D+00.
 Generated NRdTot=       0 NPtTot=           0 NUsed=           0 NTot=          32
 NSgBfM=   129   129   129   129   129 MxSgAt=    19 MxSgA2=    19.
 Leave Link  302 at Thu Mar 19 18:27:25 2026, MaxMem=   536870912 cpu:         0.0
 (Enter C:\G09W\l303.exe)
 DipDrv:  MaxL=1.
 Leave Link  303 at Thu Mar 19 18:27:25 2026, MaxMem=   536870912 cpu:         0.0
 (Enter C:\G09W\l401.exe)
 ExpMin= 1.61D-01 ExpMax= 5.48D+03 ExpMxC= 8.25D+02 IAcc=1 IRadAn=         1 AccDes= 0.00D+00
 Harris functional with IExCor=  402 and IRadAn=       1 diagonalized for initial guess.
 HarFok:  IExCor=  402 AccDes= 0.00D+00 IRadAn=         1 IDoV= 1 UseB2=F ITyADJ=14
 ICtDFT=  3500011 ScaDFX=  1.000000  1.000000  1.000000  1.000000
 FoFCou: FMM=F IPFlag=           0 FMFlag=      100000 FMFlg1=           0
         NFxFlg=           0 DoJE=T BraDBF=F KetDBF=T FulRan=T
         wScrn=  0.000000 ICntrl=     500 IOpCl=  0 I1Cent=   200000004 NGrid=           0
         NMat0=    1 NMatS0=      1 NMatT0=    0 NMatD0=    1 NMtDS0=    0 NMtDT0=    0
 Petite list used in FoFCou.
 Harris En= -311.146547446528    
 JPrj=0 DoOrth=F DoCkMO=F.
 Leave Link  401 at Thu Mar 19 18:27:26 2026, MaxMem=   536870912 cpu:         1.0
 (Enter C:\G09W\l502.exe)
 Closed shell SCF:
 Using DIIS extrapolation, IDIIS=  1040.
 Integral symmetry usage will be decided dynamically.
 Keep R1 ints in memory in canonical form, NReq=36326980.
 IVT=       70240 IEndB=       70240 NGot=   536870912 MDV=   501642368
 LenX=   501642368 LenY=   501625286
 Requested convergence on RMS density matrix=1.00D-08 within 128 cycles.
 Requested convergence on MAX density matrix=1.00D-06.
 Requested convergence on             energy=1.00D-06.
 No special actions if energy rises.
 FoFCou: FMM=F IPFlag=           0 FMFlag=           0 FMFlg1=           0
         NFxFlg=           0 DoJE=F BraDBF=F KetDBF=F FulRan=T
         wScrn=  0.000000 ICntrl=     600 IOpCl=  0 I1Cent=           0 NGrid=           0
         NMat0=    1 NMatS0=   8385 NMatT0=    0 NMatD0=    1 NMtDS0=    0 NMtDT0=    0
 Symmetry not used in FoFCou.
 Integral accuracy reduced to 1.0D-05 until final iterations.

 Cycle   1  Pass 0  IDiag  1:
 E= -310.828910898676    
 DIIS: error= 2.89D-02 at cycle   1 NSaved=   1.
 NSaved= 1 IEnMin= 1 EnMin= -310.828910898676     IErMin= 1 ErrMin= 2.89D-02
 ErrMax= 2.89D-02  0.00D+00 EMaxC= 1.00D-01 BMatC= 2.50D-01 BMatP= 2.50D-01
 IDIUse=3 WtCom= 7.11D-01 WtEn= 2.89D-01
 Coeff-Com:  0.100D+01
 Coeff-En:   0.100D+01
 Coeff:      0.100D+01
 Gap=     0.246 Goal=   None    Shift=    0.000
 GapD=    0.246 DampG=1.000 DampE=0.500 DampFc=0.5000 IDamp=-1.
 Damping current iteration by 5.00D-01
 RMSDP=9.67D-03 MaxDP=1.58D-01              OVMax= 1.78D-01

 Cycle   2  Pass 0  IDiag  1:
 E= -310.931606896222     Delta-E=       -0.102695997547 Rises=F Damp=T
 DIIS: error= 8.10D-03 at cycle   2 NSaved=   2.
 NSaved= 2 IEnMin= 2 EnMin= -310.931606896222     IErMin= 2 ErrMin= 8.10D-03
 ErrMax= 8.10D-03  0.00D+00 EMaxC= 1.00D-01 BMatC= 1.76D-02 BMatP= 2.50D-01
 IDIUse=3 WtCom= 9.19D-01 WtEn= 8.10D-02
 Coeff-Com:  0.130D+00 0.870D+00
 Coeff-En:   0.207D+00 0.793D+00
 Coeff:      0.136D+00 0.864D+00
 Gap=     0.327 Goal=   None    Shift=    0.000
 RMSDP=1.89D-03 MaxDP=3.01D-02 DE=-1.03D-01 OVMax= 1.01D-01

 Cycle   3  Pass 0  IDiag  1:
 E= -311.085709832917     Delta-E=       -0.154102936695 Rises=F Damp=F
 DIIS: error= 3.34D-03 at cycle   3 NSaved=   3.
 NSaved= 3 IEnMin= 3 EnMin= -311.085709832917     IErMin= 3 ErrMin= 3.34D-03
 ErrMax= 3.34D-03  0.00D+00 EMaxC= 1.00D-01 BMatC= 2.83D-03 BMatP= 1.76D-02
 IDIUse=3 WtCom= 9.67D-01 WtEn= 3.34D-02
 Coeff-Com:  0.939D-02 0.261D+00 0.729D+00
 Coeff-En:   0.000D+00 0.000D+00 0.100D+01
 Coeff:      0.907D-02 0.252D+00 0.738D+00
 Gap=     0.320 Goal=   None    Shift=    0.000
 RMSDP=6.01D-04 MaxDP=9.93D-03 DE=-1.54D-01 OVMax= 1.22D-02

 Cycle   4  Pass 0  IDiag  1:
 E= -311.087727372926     Delta-E=       -0.002017540009 Rises=F Damp=F
 DIIS: error= 1.65D-03 at cycle   4 NSaved=   4.
 NSaved= 4 IEnMin= 4 EnMin= -311.087727372926     IErMin= 4 ErrMin= 1.65D-03
 ErrMax= 1.65D-03  0.00D+00 EMaxC= 1.00D-01 BMatC= 5.11D-04 BMatP= 2.83D-03
 IDIUse=3 WtCom= 9.83D-01 WtEn= 1.65D-02
 Coeff-Com: -0.110D-02 0.609D-01 0.324D+00 0.616D+00
 Coeff-En:   0.000D+00 0.000D+00 0.157D-01 0.984D+00
 Coeff:     -0.108D-02 0.599D-01 0.319D+00 0.622D+00
 Gap=     0.323 Goal=   None    Shift=    0.000
 RMSDP=2.27D-04 MaxDP=5.30D-03 DE=-2.02D-03 OVMax= 5.70D-03

 Cycle   5  Pass 0  IDiag  1:
 E= -311.088060396322     Delta-E=       -0.000333023395 Rises=F Damp=F
 DIIS: error= 6.49D-04 at cycle   5 NSaved=   5.
 NSaved= 5 IEnMin= 5 EnMin= -311.088060396322     IErMin= 5 ErrMin= 6.49D-04
 ErrMax= 6.49D-04  0.00D+00 EMaxC= 1.00D-01 BMatC= 1.05D-04 BMatP= 5.11D-04
 IDIUse=3 WtCom= 9.94D-01 WtEn= 6.49D-03
 Coeff-Com: -0.174D-02 0.329D-02 0.953D-01 0.354D+00 0.549D+00
 Coeff-En:   0.000D+00 0.000D+00 0.000D+00 0.147D+00 0.853D+00
 Coeff:     -0.173D-02 0.327D-02 0.947D-01 0.353D+00 0.551D+00
 Gap=     0.321 Goal=   None    Shift=    0.000
 RMSDP=7.75D-05 MaxDP=1.77D-03 DE=-3.33D-04 OVMax= 1.68D-03

 Cycle   6  Pass 0  IDiag  1:
 E= -311.088143436007     Delta-E=       -0.000083039685 Rises=F Damp=F
 DIIS: error= 4.32D-05 at cycle   6 NSaved=   6.
 NSaved= 6 IEnMin= 6 EnMin= -311.088143436007     IErMin= 6 ErrMin= 4.32D-05
 ErrMax= 4.32D-05  0.00D+00 EMaxC= 1.00D-01 BMatC= 1.11D-06 BMatP= 1.05D-04
 IDIUse=1 WtCom= 1.00D+00 WtEn= 0.00D+00
 Coeff-Com: -0.629D-03 0.276D-03 0.358D-01 0.145D+00 0.244D+00 0.576D+00
 Coeff:     -0.629D-03 0.276D-03 0.358D-01 0.145D+00 0.244D+00 0.576D+00
 Gap=     0.321 Goal=   None    Shift=    0.000
 RMSDP=8.62D-06 MaxDP=2.63D-04 DE=-8.30D-05 OVMax= 2.13D-04

 Initial convergence to 1.0D-05 achieved.  Increase integral accuracy.
 Cycle   7  Pass 1  IDiag  1:
 E= -311.088223029932     Delta-E=       -0.000079593925 Rises=F Damp=F
 DIIS: error= 3.05D-05 at cycle   1 NSaved=   1.
 NSaved= 1 IEnMin= 1 EnMin= -311.088223029932     IErMin= 1 ErrMin= 3.05D-05
 ErrMax= 3.05D-05  0.00D+00 EMaxC= 1.00D-01 BMatC= 2.22D-07 BMatP= 2.22D-07
 IDIUse=1 WtCom= 1.00D+00 WtEn= 0.00D+00
 Coeff-Com:  0.100D+01
 Coeff:      0.100D+01
 Gap=     0.321 Goal=   None    Shift=    0.000
 RMSDP=8.62D-06 MaxDP=2.63D-04 DE=-7.96D-05 OVMax= 1.31D-04

 Cycle   8  Pass 1  IDiag  1:
 E= -311.088223179801     Delta-E=       -0.000000149869 Rises=F Damp=F
 DIIS: error= 2.44D-05 at cycle   2 NSaved=   2.
 NSaved= 2 IEnMin= 2 EnMin= -311.088223179801     IErMin= 2 ErrMin= 2.44D-05
 ErrMax= 2.44D-05  0.00D+00 EMaxC= 1.00D-01 BMatC= 1.23D-07 BMatP= 2.22D-07
 IDIUse=1 WtCom= 1.00D+00 WtEn= 0.00D+00
 Coeff-Com:  0.406D+00 0.594D+00
 Coeff:      0.406D+00 0.594D+00
 Gap=     0.321 Goal=   None    Shift=    0.000
 RMSDP=3.38D-06 MaxDP=9.85D-05 DE=-1.50D-07 OVMax= 8.25D-05

 Cycle   9  Pass 1  IDiag  1:
 E= -311.088223278407     Delta-E=       -0.000000098606 Rises=F Damp=F
 DIIS: error= 8.46D-06 at cycle   3 NSaved=   3.
 NSaved= 3 IEnMin= 3 EnMin= -311.088223278407     IErMin= 3 ErrMin= 8.46D-06
 ErrMax= 8.46D-06  0.00D+00 EMaxC= 1.00D-01 BMatC= 1.65D-08 BMatP= 1.23D-07
 IDIUse=1 WtCom= 1.00D+00 WtEn= 0.00D+00
 Coeff-Com: -0.119D-01 0.261D+00 0.751D+00
 Coeff:     -0.119D-01 0.261D+00 0.751D+00
 Gap=     0.321 Goal=   None    Shift=    0.000
 RMSDP=9.67D-07 MaxDP=2.49D-05 DE=-9.86D-08 OVMax= 2.13D-05

 Cycle  10  Pass 1  IDiag  1:
 E= -311.088223292613     Delta-E=       -0.000000014206 Rises=F Damp=F
 DIIS: error= 1.83D-06 at cycle   4 NSaved=   4.
 NSaved= 4 IEnMin= 4 EnMin= -311.088223292613     IErMin= 4 ErrMin= 1.83D-06
 ErrMax= 1.83D-06  0.00D+00 EMaxC= 1.00D-01 BMatC= 8.00D-10 BMatP= 1.65D-08
 IDIUse=1 WtCom= 1.00D+00 WtEn= 0.00D+00
 Coeff-Com: -0.136D-01 0.131D+00 0.403D+00 0.480D+00
 Coeff:     -0.136D-01 0.131D+00 0.403D+00 0.480D+00
 Gap=     0.321 Goal=   None    Shift=    0.000
 RMSDP=2.32D-07 MaxDP=5.39D-06 DE=-1.42D-08 OVMax= 5.57D-06

 Cycle  11  Pass 1  IDiag  1:
 E= -311.088223293234     Delta-E=       -0.000000000621 Rises=F Damp=F
 DIIS: error= 3.96D-07 at cycle   5 NSaved=   5.
 NSaved= 5 IEnMin= 5 EnMin= -311.088223293234     IErMin= 5 ErrMin= 3.96D-07
 ErrMax= 3.96D-07  0.00D+00 EMaxC= 1.00D-01 BMatC= 3.05D-11 BMatP= 8.00D-10
 IDIUse=1 WtCom= 1.00D+00 WtEn= 0.00D+00
 Coeff-Com: -0.431D-02 0.296D-01 0.940D-01 0.204D+00 0.677D+00
 Coeff:     -0.431D-02 0.296D-01 0.940D-01 0.204D+00 0.677D+00
 Gap=     0.321 Goal=   None    Shift=    0.000
 RMSDP=4.66D-08 MaxDP=1.18D-06 DE=-6.21D-10 OVMax= 1.21D-06

 Cycle  12  Pass 1  IDiag  1:
 E= -311.088223293255     Delta-E=       -0.000000000021 Rises=F Damp=F
 DIIS: error= 7.59D-08 at cycle   6 NSaved=   6.
 NSaved= 6 IEnMin= 6 EnMin= -311.088223293255     IErMin= 6 ErrMin= 7.59D-08
 ErrMax= 7.59D-08  0.00D+00 EMaxC= 1.00D-01 BMatC= 1.75D-12 BMatP= 3.05D-11
 IDIUse=1 WtCom= 1.00D+00 WtEn= 0.00D+00
 Coeff-Com: -0.943D-03 0.460D-02 0.145D-01 0.571D-01 0.277D+00 0.648D+00
 Coeff:     -0.943D-03 0.460D-02 0.145D-01 0.571D-01 0.277D+00 0.648D+00
 Gap=     0.321 Goal=   None    Shift=    0.000
 RMSDP=1.39D-08 MaxDP=2.32D-07 DE=-2.09D-11 OVMax= 2.79D-07

 Cycle  13  Pass 1  IDiag  1:
 E= -311.088223293259     Delta-E=       -0.000000000005 Rises=F Damp=F
 DIIS: error= 2.56D-08 at cycle   7 NSaved=   7.
 NSaved= 7 IEnMin= 7 EnMin= -311.088223293259     IErMin= 7 ErrMin= 2.56D-08
 ErrMax= 2.56D-08  0.00D+00 EMaxC= 1.00D-01 BMatC= 2.32D-13 BMatP= 1.75D-12
 IDIUse=1 WtCom= 1.00D+00 WtEn= 0.00D+00
 Coeff-Com: -0.460D-04-0.647D-03-0.219D-02 0.676D-02 0.615D-01 0.312D+00
 Coeff-Com:  0.623D+00
 Coeff:     -0.460D-04-0.647D-03-0.219D-02 0.676D-02 0.615D-01 0.312D+00
 Coeff:      0.623D+00
 Gap=     0.321 Goal=   None    Shift=    0.000
 RMSDP=3.82D-09 MaxDP=8.44D-08 DE=-4.55D-12 OVMax= 8.18D-08

 SCF Done:  E(RB3LYP) =  -311.088223293     A.U. after   13 cycles
            NFock= 13  Conv=0.38D-08     -V/T= 2.0092
 KE= 3.082419367183D+02 PE=-1.393494412040D+03 EE= 4.388519758034D+02
 Leave Link  502 at Thu Mar 19 18:27:44 2026, MaxMem=   536870912 cpu:        17.0
 (Enter C:\G09W\l601.exe)
 Copying SCF densities to generalized density rwf, IOpCl= 0 IROHF=0.

 **********************************************************************

            Population analysis using the SCF density.

 **********************************************************************

 Orbital symmetries:
       Occupied  (A) (A) (A) (A) (A) (A) (A) (A) (A) (A) (A) (A)
                 (A) (A) (A) (A) (A) (A) (A) (A) (A) (A) (A) (A)
                 (A) (A) (A) (A)
       Virtual   (A) (A) (A) (A) (A) (A) (A) (A) (A) (A) (A) (A)
                 (A) (A) (A) (A) (A) (A) (A) (A) (A) (A) (A) (A)
                 (A) (A) (A) (A) (A) (A) (A) (A) (A) (A) (A) (A)
                 (A) (A) (A) (A) (A) (A) (A) (A) (A) (A) (A) (A)
                 (A) (A) (A) (A) (A) (A) (A) (A) (A) (A) (A) (A)
                 (A) (A) (A) (A) (A) (A) (A) (A) (A) (A) (A) (A)
                 (A) (A) (A) (A) (A) (A) (A) (A) (A) (A) (A) (A)
                 (A) (A) (A) (A) (A) (A) (A) (A) (A) (A) (A) (A)
                 (A) (A) (A) (A) (A)
 The electronic state is 1-A.
 Alpha  occ. eigenvalues --  -19.13492 -10.22597 -10.17587 -10.17308 -10.17140
 Alpha  occ. eigenvalues --  -10.17023 -10.16840  -1.01030  -0.81706  -0.73830
 Alpha  occ. eigenvalues --   -0.72706  -0.60773  -0.59999  -0.54592  -0.49070
 Alpha  occ. eigenvalues --   -0.47551  -0.44498  -0.43679  -0.39866  -0.38824
 Alpha  occ. eigenvalues --   -0.37260  -0.36940  -0.34644  -0.33048  -0.31262
 Alpha  occ. eigenvalues --   -0.30382  -0.28998  -0.25547
 Alpha virt. eigenvalues --    0.06588   0.10987   0.11820   0.13972   0.14277
 Alpha virt. eigenvalues --    0.16547   0.17078   0.17710   0.18616   0.18663
 Alpha virt. eigenvalues --    0.19274   0.20063   0.23481   0.23809   0.24089
 Alpha virt. eigenvalues --    0.27215   0.27687   0.28575   0.30651   0.51454
 Alpha virt. eigenvalues --    0.53517   0.54877   0.56100   0.56333   0.57807
 Alpha virt. eigenvalues --    0.60560   0.63989   0.64588   0.67225   0.71698
 Alpha virt. eigenvalues --    0.72215   0.74028   0.76096   0.79568   0.81045
 Alpha virt. eigenvalues --    0.84500   0.85825   0.86610   0.87567   0.89308
 Alpha virt. eigenvalues --    0.90030   0.91293   0.91754   0.94878   0.96371
 Alpha virt. eigenvalues --    0.97204   0.98073   1.00357   1.04756   1.08108
 Alpha virt. eigenvalues --    1.13891   1.16655   1.25879   1.30552   1.36644
 Alpha virt. eigenvalues --    1.38246   1.44200   1.51659   1.54924   1.61408
 Alpha virt. eigenvalues --    1.63779   1.70633   1.72199   1.74344   1.76192
 Alpha virt. eigenvalues --    1.82877   1.88320   1.91892   1.93579   1.97770
 Alpha virt. eigenvalues --    1.98159   2.01758   2.02321   2.06469   2.13197
 Alpha virt. eigenvalues --    2.15436   2.18566   2.25605   2.27748   2.31972
 Alpha virt. eigenvalues --    2.32229   2.36518   2.37771   2.40237   2.42763
 Alpha virt. eigenvalues --    2.47940   2.54180   2.60426   2.68341   2.69485
 Alpha virt. eigenvalues --    2.70948   2.73161   2.79503   2.90050   3.77389
 Alpha virt. eigenvalues --    4.14852   4.26924   4.32124   4.56174   4.56560
 Alpha virt. eigenvalues --    4.62481
          Condensed to atoms (all electrons):
               1          2          3          4          5          6
     1  O    8.299532   0.232134  -0.054382   0.001362  -0.002396  -0.001540
     2  C    0.232134   4.739204   0.380966  -0.030930  -0.013355  -0.031101
     3  C   -0.054382   0.380966   5.059896   0.369831  -0.042446  -0.022842
     4  C    0.001362  -0.030930   0.369831   4.996641   0.384680  -0.041228
     5  C   -0.002396  -0.013355  -0.042446   0.384680   4.988587   0.388022
     6  C   -0.001540  -0.031101  -0.022842  -0.041228   0.388022   4.999830
     7  C   -0.054216   0.362082  -0.038983  -0.024455  -0.040831   0.363699
     8  H    0.229953  -0.024524   0.007713  -0.000080   0.000062  -0.000695
     9  H   -0.041994   0.376012  -0.052145   0.006225  -0.000270   0.006313
    10  H    0.001270  -0.028838   0.362694  -0.035666   0.005142  -0.000029
    11  H    0.003125  -0.034941   0.363465  -0.040049  -0.004054  -0.000415
    12  H    0.000057   0.004920  -0.034577   0.368870  -0.034921   0.005264
    13  H    0.006561  -0.007879  -0.037384   0.378430  -0.039008  -0.004080
    14  H    0.000024  -0.001674  -0.002996  -0.043345   0.372142  -0.043857
    15  H   -0.000022   0.000212   0.005079  -0.033598   0.370165  -0.033982
    16  H    0.000090   0.004604   0.000106   0.005159  -0.034566   0.369469
    17  H    0.010038  -0.007777  -0.000834  -0.003280  -0.039218   0.373145
    18  H   -0.003251  -0.033666   0.005381   0.000039   0.005144  -0.038599
    19  H    0.004256  -0.028291  -0.002234   0.000095  -0.004498  -0.037226
               7          8          9         10         11         12
     1  O   -0.054216   0.229953  -0.041994   0.001270   0.003125   0.000057
     2  C    0.362082  -0.024524   0.376012  -0.028838  -0.034941   0.004920
     3  C   -0.038983   0.007713  -0.052145   0.362694   0.363465  -0.034577
     4  C   -0.024455  -0.000080   0.006225  -0.035666  -0.040049   0.368870
     5  C   -0.040831   0.000062  -0.000270   0.005142  -0.004054  -0.034921
     6  C    0.363699  -0.000695   0.006313  -0.000029  -0.000415   0.005264
     7  C    5.145727  -0.003902  -0.062569   0.005853  -0.001307   0.000107
     8  H   -0.003902   0.403855  -0.004645  -0.000191  -0.000293   0.000008
     9  H   -0.062569  -0.004645   0.676306  -0.004304  -0.001678  -0.000137
    10  H    0.005853  -0.000191  -0.004304   0.590200  -0.032445  -0.002402
    11  H   -0.001307  -0.000293  -0.001678  -0.032445   0.612679  -0.005547
    12  H    0.000107   0.000008  -0.000137  -0.002402  -0.005547   0.617179
    13  H   -0.000107  -0.000291   0.000121  -0.004117   0.005925  -0.036978
    14  H   -0.003305   0.000003  -0.000080  -0.000045   0.004819  -0.005159
    15  H    0.005081  -0.000001   0.000012  -0.000175  -0.000062  -0.002313
    16  H   -0.034696  -0.000055  -0.000137   0.000012  -0.000030  -0.000179
    17  H   -0.039222   0.000176   0.000211  -0.000056   0.000113  -0.000019
    18  H    0.360925   0.006650  -0.004023  -0.000177  -0.000056   0.000013
    19  H    0.340699  -0.000050   0.000292  -0.000187   0.002101  -0.000019
              13         14         15         16         17         18
     1  O    0.006561   0.000024  -0.000022   0.000090   0.010038  -0.003251
     2  C   -0.007879  -0.001674   0.000212   0.004604  -0.007777  -0.033666
     3  C   -0.037384  -0.002996   0.005079   0.000106  -0.000834   0.005381
     4  C    0.378430  -0.043345  -0.033598   0.005159  -0.003280   0.000039
     5  C   -0.039008   0.372142   0.370165  -0.034566  -0.039218   0.005144
     6  C   -0.004080  -0.043857  -0.033982   0.369469   0.373145  -0.038599
     7  C   -0.000107  -0.003305   0.005081  -0.034696  -0.039222   0.360925
     8  H   -0.000291   0.000003  -0.000001  -0.000055   0.000176   0.006650
     9  H    0.000121  -0.000080   0.000012  -0.000137   0.000211  -0.004023
    10  H   -0.004117  -0.000045  -0.000175   0.000012  -0.000056  -0.000177
    11  H    0.005925   0.004819  -0.000062  -0.000030   0.000113  -0.000056
    12  H   -0.036978  -0.005159  -0.002313  -0.000179  -0.000019   0.000013
    13  H    0.583176   0.005922  -0.004593  -0.000029   0.004049  -0.000035
    14  H    0.005922   0.626915  -0.037053  -0.005113   0.005996  -0.000031
    15  H   -0.004593  -0.037053   0.609608  -0.002311  -0.004761  -0.000187
    16  H   -0.000029  -0.005113  -0.002311   0.616596  -0.037420  -0.002492
    17  H    0.004049   0.005996  -0.004761  -0.037420   0.597377  -0.004401
    18  H   -0.000035  -0.000031  -0.000187  -0.002492  -0.004401   0.624212
    19  H    0.000091   0.004865  -0.000068  -0.005441   0.006433  -0.032352
              19
     1  O    0.004256
     2  C   -0.028291
     3  C   -0.002234
     4  C    0.000095
     5  C   -0.004498
     6  C   -0.037226
     7  C    0.340699
     8  H   -0.000050
     9  H    0.000292
    10  H   -0.000187
    11  H    0.002101
    12  H   -0.000019
    13  H    0.000091
    14  H    0.004865
    15  H   -0.000068
    16  H   -0.005441
    17  H    0.006433
    18  H   -0.032352
    19  H    0.624354
 Mulliken charges:
               1
     1  O   -0.630601
     2  C    0.142842
     3  C   -0.266306
     4  C   -0.258702
     5  C   -0.258381
     6  C   -0.250148
     7  C   -0.280579
     8  H    0.386309
     9  H    0.106489
    10  H    0.143460
    11  H    0.128650
    12  H    0.125834
    13  H    0.150225
    14  H    0.121971
    15  H    0.128969
    16  H    0.126433
    17  H    0.139450
    18  H    0.116905
    19  H    0.127179
 Sum of Mulliken charges =   0.00000
 Mulliken charges with hydrogens summed into heavy atoms:
               1
     1  O   -0.244291
     2  C    0.249331
     3  C    0.005805
     4  C    0.017357
     5  C   -0.007440
     6  C    0.015734
     7  C   -0.036495
 Electronic spatial extent (au):  <R**2>=            742.0653
 Charge=              0.0000 electrons
 Dipole moment (field-independent basis, Debye):
    X=             -0.2513    Y=              1.0587    Z=              0.8684  Tot=              1.3921
 Quadrupole moment (field-independent basis, Debye-Ang):
   XX=            -42.8673   YY=            -43.9064   ZZ=            -45.2502
   XY=             -3.1403   XZ=             -0.5489   YZ=             -1.5187
 Traceless Quadrupole moment (field-independent basis, Debye-Ang):
   XX=              1.1406   YY=              0.1016   ZZ=             -1.2422
   XY=             -3.1403   XZ=             -0.5489   YZ=             -1.5187
 Octapole moment (field-independent basis, Debye-Ang**2):
  XXX=            -17.3458  YYY=             -0.7721  ZZZ=             -3.1020  XYY=             -4.6077
  XXY=              7.5937  XXZ=             -2.6968  XZZ=             -1.4856  YZZ=              1.2701
  YYZ=             -2.1553  XYZ=              3.5227
 Hexadecapole moment (field-independent basis, Debye-Ang**3):
 XXXX=           -433.6743 YYYY=           -358.2597 ZZZZ=           -159.4280 XXXY=            -19.3562
 XXXZ=             12.8350 YYYX=             -1.0449 YYYZ=             -0.7211 ZZZX=              7.7437
 ZZZY=             -2.0305 XXYY=           -131.3149 XXZZ=           -100.8844 YYZZ=            -87.9393
 XXYZ=             -8.5213 YYXZ=              5.5942 ZZXY=             -3.4746
 N-N= 3.353122762253D+02 E-N=-1.393494404352D+03  KE= 3.082419367183D+02
 No NMR shielding tensors so no spin-rotation constants.
 Leave Link  601 at Thu Mar 19 18:27:45 2026, MaxMem=   536870912 cpu:         0.0
 (Enter C:\G09W\l701.exe)
 Compute integral first derivatives.
 ... and contract with generalized density number  0.
 Leave Link  701 at Thu Mar 19 18:27:46 2026, MaxMem=   536870912 cpu:         0.0
 (Enter C:\G09W\l702.exe)
 L702 exits ... SP integral derivatives will be done elsewhere.
 Leave Link  702 at Thu Mar 19 18:27:46 2026, MaxMem=   536870912 cpu:         0.0
 (Enter C:\G09W\l703.exe)
 Compute integral first derivatives, UseDBF=F ICtDFT=           0.
 Integral derivatives from FoFJK, PRISM(SPDF).
 Calling FoFJK, ICntrl=      2127 FMM=F ISym2X=0 I1Cent= 0 IOpClX= 0 NMat=1 NMatS=1 NMatT=0.
 FoFJK:  IHMeth= 1 ICntrl=    2127 DoSepK=F KAlg= 0 I1Cent=   0 FoldK=F
 IRaf=         0 NMat=   1 IRICut=       1 DoRegI=T DoRafI=F ISym2E= 0.
 FoFCou: FMM=F IPFlag=           0 FMFlag=      100000 FMFlg1=         800
         NFxFlg=           0 DoJE=F BraDBF=F KetDBF=F FulRan=T
         wScrn=  0.000000 ICntrl=    2127 IOpCl=  0 I1Cent=           0 NGrid=           0
         NMat0=    1 NMatS0=      1 NMatT0=    0 NMatD0=    1 NMtDS0=    0 NMtDT0=    0
 Symmetry not used in FoFCou.
 Leave Link  703 at Thu Mar 19 18:27:51 2026, MaxMem=   536870912 cpu:         5.0
 (Enter C:\G09W\l716.exe)
 Dipole        =-9.88644173D-02 4.16521821D-01 3.41645075D-01
 ***** Axes restored to original set *****
 -------------------------------------------------------------------
 Center     Atomic                   Forces (Hartrees/Bohr)
 Number     Number              X              Y              Z
 -------------------------------------------------------------------
      1        8           0.000422411    0.003042838   -0.009288553
      2        6           0.005403082   -0.003636738    0.001822327
      3        6           0.000281755    0.003355560   -0.006264675
      4        6          -0.003078991    0.001761977   -0.002171230
      5        6          -0.003741676   -0.000393305   -0.002507892
      6        6          -0.002728261   -0.003311242   -0.000945543
      7        6          -0.003516895   -0.001827230    0.001648185
      8        1          -0.002246805    0.002198975    0.000348591
      9        1           0.000775807    0.001376382    0.006575110
     10        1           0.003230074   -0.000523839    0.002339295
     11        1           0.001936091   -0.001090021    0.001810829
     12        1          -0.000174090    0.001604535   -0.000709705
     13        1           0.001066474   -0.000085838    0.000042789
     14        1          -0.001172432    0.000135191    0.002239690
     15        1          -0.002200866   -0.000253150    0.000592265
     16        1           0.000089846   -0.001880514   -0.000356353
     17        1           0.000988007    0.000500676   -0.000288800
     18        1           0.003655292   -0.000576512    0.002899282
     19        1           0.001011176   -0.000397744    0.002214389
 -------------------------------------------------------------------
 Cartesian Forces:  Max     0.009288553 RMS     0.002638202
 Leave Link  716 at Thu Mar 19 18:27:51 2026, MaxMem=   536870912 cpu:         0.0
 (Enter C:\G09W\l103.exe)

 GradGradGradGradGradGradGradGradGradGradGradGradGradGradGradGradGradGrad
 Berny optimization.
 FormGI is forming the generalized inverse of G from B-inverse, IUseBI=4.
 Internal  Forces:  Max     0.007051422 RMS     0.002047869
 Search for a local minimum.
 Step number   1 out of a maximum of  114
 All quantities printed in internal units (Hartrees-Bohrs-Radians)
 RMS Force = .20479D-02 SwitMx=.10000D-02 MixMth= 1
 Mixed Optimization -- RFO/linear search
 Second derivative matrix not updated -- first step.
 ITU=  0
     Eigenvalues ---    0.00562   0.00572   0.00663   0.01346   0.01947
     Eigenvalues ---    0.02045   0.03698   0.03952   0.04136   0.04362
     Eigenvalues ---    0.04806   0.04854   0.04885   0.05484   0.05656
     Eigenvalues ---    0.06110   0.06231   0.07341   0.08082   0.08176
     Eigenvalues ---    0.08184   0.08196   0.08225   0.08234   0.08930
     Eigenvalues ---    0.12101   0.12133   0.14253   0.15767   0.16000
     Eigenvalues ---    0.17382   0.21500   0.28111   0.28130   0.28287
     Eigenvalues ---    0.29519   0.29647   0.29678   0.34016   0.34031
     Eigenvalues ---    0.34032   0.34036   0.34037   0.34086   0.34099
     Eigenvalues ---    0.34136   0.34137   0.34150   0.34176   0.41545
     Eigenvalues ---    0.52897
 RFO step:  Lambda=-3.03672883D-03 EMin= 5.62000582D-03
 Linear search not attempted -- first point.
 Iteration  1 RMS(Cart)=  0.02712859 RMS(Int)=  0.00044579
 Iteration  2 RMS(Cart)=  0.00049552 RMS(Int)=  0.00019877
 Iteration  3 RMS(Cart)=  0.00000007 RMS(Int)=  0.00019877
 ITry= 1 IFail=0 DXMaxC= 1.28D-01 DCOld= 1.00D+10 DXMaxT= 3.00D-01 DXLimC= 3.00D+00 Rises=F
 Variable       Old X    -DE/DX   Delta X   Delta X   Delta X     New X
                                 (Linear)    (Quad)   (Total)
    R1        2.69507   0.00705   0.00000   0.01685   0.01685   2.71192
    R2        1.83750  -0.00311   0.00000  -0.00585  -0.00585   1.83165
    R3        2.88881  -0.00005   0.00000  -0.00132  -0.00134   2.88747
    R4        2.89038   0.00510   0.00000   0.01754   0.01746   2.90784
    R5        2.07034   0.00483   0.00000   0.01401   0.01401   2.08436
    R6        2.88961   0.00552   0.00000   0.02017   0.02012   2.90974
    R7        2.07185   0.00027   0.00000   0.00077   0.00077   2.07262
    R8        2.07268   0.00101   0.00000   0.00293   0.00293   2.07561
    R9        2.88369   0.00673   0.00000   0.02192   0.02200   2.90569
   R10        2.07101   0.00129   0.00000   0.00376   0.00376   2.07477
   R11        2.07278   0.00021   0.00000   0.00060   0.00060   2.07338
   R12        2.88373   0.00587   0.00000   0.02067   0.02070   2.90443
   R13        2.07303   0.00251   0.00000   0.00731   0.00731   2.08034
   R14        2.07077   0.00143   0.00000   0.00416   0.00416   2.07493
   R15        2.88906   0.00608   0.00000   0.01871   0.01876   2.90782
   R16        2.07099   0.00134   0.00000   0.00388   0.00388   2.07487
   R17        2.07276   0.00041   0.00000   0.00120   0.00120   2.07396
   R18        2.07164   0.00230   0.00000   0.00668   0.00668   2.07832
   R19        2.07270   0.00188   0.00000   0.00549   0.00549   2.07818
    A1        1.87680  -0.00084   0.00000  -0.00516  -0.00516   1.87164
    A2        1.89709  -0.00614   0.00000  -0.04368  -0.04327   1.85382
    A3        1.91611   0.00434   0.00000   0.03044   0.02987   1.94598
    A4        1.87301   0.00284   0.00000   0.04747   0.04708   1.92009
    A5        1.94809   0.00108   0.00000  -0.00859  -0.00862   1.93947
    A6        1.90981  -0.00017   0.00000  -0.01261  -0.01251   1.89730
    A7        1.91807  -0.00193   0.00000  -0.01117  -0.01187   1.90621
    A8        1.95783   0.00098   0.00000   0.00327   0.00329   1.96112
    A9        1.91845  -0.00266   0.00000  -0.01874  -0.01902   1.89943
   A10        1.90888  -0.00154   0.00000  -0.02424  -0.02429   1.88459
   A11        1.89561   0.00292   0.00000   0.03362   0.03370   1.92931
   A12        1.90506   0.00043   0.00000   0.01227   0.01216   1.91722
   A13        1.87615  -0.00013   0.00000  -0.00606  -0.00681   1.86934
   A14        1.94845  -0.00007   0.00000   0.00250   0.00238   1.95083
   A15        1.91201   0.00015   0.00000   0.00228   0.00225   1.91426
   A16        1.91416  -0.00095   0.00000  -0.01314  -0.01314   1.90102
   A17        1.91317   0.00032   0.00000   0.01100   0.01095   1.92413
   A18        1.91014   0.00064   0.00000  -0.00104  -0.00100   1.90914
   A19        1.86398  -0.00009   0.00000  -0.00178  -0.00180   1.86218
   A20        1.94926  -0.00130   0.00000  -0.00383  -0.00380   1.94546
   A21        1.90918   0.00058   0.00000  -0.00223  -0.00226   1.90692
   A22        1.91401   0.00065   0.00000   0.01077   0.01071   1.92472
   A23        1.90922   0.00000   0.00000  -0.00436  -0.00441   1.90481
   A24        1.91405   0.00087   0.00000   0.00874   0.00871   1.92276
   A25        1.86625  -0.00077   0.00000  -0.00939  -0.00935   1.85690
   A26        1.94766   0.00068   0.00000  -0.00105  -0.00102   1.94664
   A27        1.91305   0.00090   0.00000   0.01343   0.01341   1.92646
   A28        1.91063  -0.00051   0.00000  -0.00339  -0.00351   1.90712
   A29        1.91210  -0.00048   0.00000   0.00421   0.00412   1.91622
   A30        1.91417  -0.00065   0.00000  -0.01206  -0.01210   1.90207
   A31        1.86436   0.00003   0.00000  -0.00112  -0.00108   1.86327
   A32        1.95670  -0.00067   0.00000  -0.00004  -0.00017   1.95653
   A33        1.92066  -0.00115   0.00000  -0.01357  -0.01362   1.90704
   A34        1.90825  -0.00029   0.00000  -0.00493  -0.00499   1.90326
   A35        1.89602   0.00207   0.00000   0.02884   0.02884   1.92487
   A36        1.90536   0.00121   0.00000   0.00827   0.00837   1.91372
   A37        1.87499  -0.00117   0.00000  -0.01915  -0.01943   1.85556
    D1        3.12729  -0.00049   0.00000   0.01438   0.01421   3.14150
    D2       -1.02053  -0.00036   0.00000  -0.00506  -0.00595  -1.02648
    D3        1.06352   0.00144   0.00000   0.02653   0.02759   1.09111
    D4        1.19153   0.00181   0.00000  -0.01005  -0.00998   1.18155
    D5       -0.91941  -0.00070   0.00000  -0.04192  -0.04167  -0.96107
    D6       -2.97536   0.00195   0.00000  -0.00910  -0.00919  -2.98455
    D7       -0.92434  -0.00020   0.00000  -0.01342  -0.01349  -0.93783
    D8       -3.03528  -0.00271   0.00000  -0.04529  -0.04518  -3.08045
    D9        1.19195  -0.00006   0.00000  -0.01247  -0.01270   1.17925
   D10       -3.05129   0.00164   0.00000   0.01502   0.01517  -3.03612
   D11        1.12096  -0.00087   0.00000  -0.01684  -0.01652   1.10444
   D12       -0.93500   0.00178   0.00000   0.01597   0.01596  -0.91904
   D13       -1.17853   0.00349   0.00000   0.05824   0.05838  -1.12015
   D14        0.93371   0.00488   0.00000   0.08544   0.08542   1.01912
   D15        2.98917   0.00261   0.00000   0.05121   0.05136   3.04053
   D16        0.92626  -0.00060   0.00000   0.01818   0.01813   0.94438
   D17        3.03849   0.00079   0.00000   0.04538   0.04517   3.08365
   D18       -1.18923  -0.00149   0.00000   0.01115   0.01111  -1.17813
   D19        3.04843  -0.00143   0.00000  -0.01123  -0.01104   3.03739
   D20       -1.12253  -0.00004   0.00000   0.01597   0.01600  -1.10652
   D21        0.93294  -0.00231   0.00000  -0.01826  -0.01806   0.91488
   D22        0.93809   0.00017   0.00000   0.00320   0.00318   0.94128
   D23        3.06059   0.00063   0.00000   0.02030   0.02023   3.08082
   D24       -1.18206   0.00006   0.00000   0.01185   0.01180  -1.17026
   D25        3.06215  -0.00055   0.00000   0.00481   0.00483   3.06698
   D26       -1.09854  -0.00008   0.00000   0.02191   0.02188  -1.07666
   D27        0.94200  -0.00065   0.00000   0.01346   0.01345   0.95545
   D28       -1.18039   0.00117   0.00000   0.02321   0.02337  -1.15702
   D29        0.94211   0.00164   0.00000   0.04031   0.04042   0.98253
   D30        2.98264   0.00106   0.00000   0.03186   0.03198   3.01463
   D31       -0.94934   0.00087   0.00000   0.01293   0.01297  -0.93638
   D32        1.16678   0.00041   0.00000   0.00342   0.00346   1.17024
   D33       -3.07486   0.00019   0.00000  -0.00300  -0.00300  -3.07786
   D34       -3.07117   0.00050   0.00000   0.00087   0.00089  -3.07028
   D35       -0.95505   0.00005   0.00000  -0.00864  -0.00862  -0.96367
   D36        1.08650  -0.00018   0.00000  -0.01506  -0.01508   1.07142
   D37        1.17313   0.00005   0.00000  -0.00271  -0.00270   1.17044
   D38       -2.99393  -0.00040   0.00000  -0.01222  -0.01220  -3.00614
   D39       -0.95239  -0.00063   0.00000  -0.01864  -0.01866  -0.97105
   D40        0.95144  -0.00036   0.00000  -0.00835  -0.00834   0.94310
   D41        3.07278   0.00009   0.00000   0.00545   0.00549   3.07827
   D42       -1.17086   0.00035   0.00000   0.00988   0.00989  -1.16097
   D43       -1.16465  -0.00024   0.00000  -0.00007  -0.00009  -1.16475
   D44        0.95668   0.00021   0.00000   0.01372   0.01374   0.97042
   D45        2.99623   0.00048   0.00000   0.01815   0.01813   3.01436
   D46        3.07694   0.00019   0.00000   0.00876   0.00877   3.08571
   D47       -1.08491   0.00064   0.00000   0.02255   0.02260  -1.06231
   D48        0.95463   0.00091   0.00000   0.02698   0.02700   0.98163
   D49       -0.94184   0.00059   0.00000  -0.01019  -0.01011  -0.95195
   D50       -3.06822   0.00105   0.00000  -0.01289  -0.01285  -3.08107
   D51        1.17531   0.00062   0.00000  -0.01076  -0.01076   1.16455
   D52       -3.06373  -0.00066   0.00000  -0.02931  -0.02926  -3.09299
   D53        1.09308  -0.00020   0.00000  -0.03201  -0.03201   1.06107
   D54       -0.94658  -0.00063   0.00000  -0.02988  -0.02991  -0.97649
   D55        1.17841  -0.00004   0.00000  -0.02341  -0.02333   1.15508
   D56       -0.94797   0.00042   0.00000  -0.02612  -0.02607  -0.97404
   D57       -2.98763  -0.00002   0.00000  -0.02398  -0.02398  -3.01161
         Item               Value     Threshold  Converged?
 Maximum Force            0.007051     0.000450     NO 
 RMS     Force            0.002048     0.000300     NO 
 Maximum Displacement     0.128329     0.001800     NO 
 RMS     Displacement     0.027038     0.001200     NO 
 Predicted change in Energy=-1.597332D-03
 Lowest energy point so far.  Saving SCF results.
 GradGradGradGradGradGradGradGradGradGradGradGradGradGradGradGradGradGrad

 Leave Link  103 at Thu Mar 19 18:27:52 2026, MaxMem=   536870912 cpu:         0.0
 (Enter C:\G09W\l202.exe)
                          Input orientation:                          
 ---------------------------------------------------------------------
 Center     Atomic      Atomic             Coordinates (Angstroms)
 Number     Number       Type             X           Y           Z
 ---------------------------------------------------------------------
      1          8           0        1.818227    0.068915   -1.086825
      2          6           0        1.334011    0.175373    0.259901
      3          6           0        0.412494    1.393899    0.286950
      4          6           0       -0.870719    1.176374   -0.535807
      5          6           0       -1.614780   -0.098643   -0.105699
      6          6           0       -0.691350   -1.326833   -0.138298
      7          6           0        0.583847   -1.096892    0.691621
      8          1           0        2.405798   -0.701207   -1.120750
      9          1           0        2.175425    0.352755    0.950664
     10          1           0        0.965738    2.264458   -0.085857
     11          1           0        0.153543    1.599952    1.334275
     12          1           0       -1.526725    2.051072   -0.435853
     13          1           0       -0.604249    1.101908   -1.597536
     14          1           0       -2.002475    0.034381    0.916020
     15          1           0       -2.488569   -0.264835   -0.749509
     16          1           0       -1.221566   -2.213778    0.232842
     17          1           0       -0.407760   -1.539288   -1.177011
     18          1           0        1.256908   -1.962287    0.604221
     19          1           0        0.322203   -1.015322    1.756651
 ---------------------------------------------------------------------
                    Distance matrix (angstroms):
                    1          2          3          4          5
     1  O    0.000000
     2  C    1.435085   0.000000
     3  C    2.370428   1.527982   0.000000
     4  C    2.959817   2.548722   1.539767   0.000000
     5  C    3.574384   2.983976   2.547880   1.537624   0.000000
     6  C    3.024201   2.552895   2.966764   2.540911   1.536956
     7  C    2.458794   1.538762   2.529261   2.964807   2.542869
     8  H    0.969267   1.955331   3.216264   3.821391   4.190281
     9  H    2.087946   1.102994   2.152306   3.488114   3.960469
    10  H    2.559118   2.149290   1.096785   2.181503   3.499102
    11  H    3.313152   2.139442   1.098364   2.173877   2.843540
    12  H    3.942261   3.490864   2.171380   1.097921   2.176702
    13  H    2.682590   2.839963   2.161091   1.097188   2.165196
    14  H    4.313971   3.403308   2.841846   2.166292   1.100870
    15  H    4.332859   3.978041   3.498830   2.177198   1.098006
    16  H    4.023997   3.498536   3.960860   3.493858   2.177848
    17  H    2.747630   2.835233   3.379288   2.828479   2.163345
    18  H    2.701943   2.166586   3.475296   3.959502   3.496247
    19  H    3.391020   2.163740   2.823565   3.388504   2.839111
                    6          7          8          9         10
     6  C    0.000000
     7  C    1.538754   0.000000
     8  H    3.308919   2.600146   0.000000
     9  H    3.496463   2.168341   2.335522   0.000000
    10  H    3.955510   3.471165   3.455423   2.488439   0.000000
    11  H    3.383546   2.805555   4.049091   2.406380   1.765787
    12  H    3.492367   3.954161   4.848594   4.302630   2.525946
    13  H    2.834739   3.389179   3.541035   3.844625   2.470133
    14  H    2.164148   2.831819   4.911455   4.190156   3.845424
    15  H    2.175181   3.494126   4.927786   5.002484   4.332435
    16  H    1.097974   2.171965   4.156664   4.317628   4.994043
    17  H    1.097491   2.161200   2.936266   3.844434   4.188746
    18  H    2.179643   1.099799   2.426066   2.514581   4.292594
    19  H    2.171442   1.099728   3.566437   2.440426   3.816534
                   11         12         13         14         15
    11  H    0.000000
    12  H    2.481968   0.000000
    13  H    3.068846   1.761074   0.000000
    14  H    2.697103   2.474054   3.067999   0.000000
    15  H    3.847122   2.527241   2.477458   1.760626   0.000000
    16  H    4.201026   4.327727   3.837335   2.476039   2.523626
    17  H    4.059120   3.833025   2.681672   3.065996   2.477247
    18  H    3.799993   4.993738   4.207247   3.835033   4.329264
    19  H    2.654526   4.198617   4.073272   2.685640   3.839858
                   16         17         18         19
    16  H    0.000000
    17  H    1.762074   0.000000
    18  H    2.518731   2.474437   0.000000
    19  H    2.478208   3.068185   1.760259   0.000000
 Stoichiometry    C6H12O
 Framework group  C1[X(C6H12O)]
 Deg. of freedom    51
 Full point group                 C1      NOp   1
 RotChk:  IX=0 Diff= 6.42D-02
 Largest Abelian subgroup         C1      NOp   1
 Largest concise Abelian subgroup C1      NOp   1
                         Standard orientation:                         
 ---------------------------------------------------------------------
 Center     Atomic      Atomic             Coordinates (Angstroms)
 Number     Number       Type             X           Y           Z
 ---------------------------------------------------------------------
      1          8           0       -1.712303   -0.103622   -0.905617
      2          6           0       -1.169485   -0.026455    0.420604
      3          6           0       -0.305799   -1.273885    0.601420
      4          6           0        0.945196   -1.255453   -0.296106
      5          6           0        1.767937    0.028882   -0.101508
      6          6           0        0.902529    1.285091   -0.289238
      7          6           0       -0.340707    1.255087    0.616980
      8          1           0       -2.264121    0.682443   -1.036294
      9          1           0       -1.984136   -0.049433    1.163849
     10          1           0       -0.916464   -2.160612    0.392273
     11          1           0       -0.006782   -1.329153    1.656852
     12          1           0        1.563569   -2.138153   -0.086616
     13          1           0        0.631823   -1.331820   -1.344813
     14          1           0        2.197599    0.034781    0.912035
     15          1           0        2.616621    0.046341   -0.797962
     16          1           0        1.490905    2.188963   -0.083382
     17          1           0        0.579641    1.349330   -1.336188
     18          1           0       -0.975928    2.131467    0.422022
     19          1           0       -0.032323    1.325216    1.670252
 ---------------------------------------------------------------------
 Rotational constants (GHZ):      3.5259284      2.6360034      1.9769878
 Leave Link  202 at Thu Mar 19 18:27:52 2026, MaxMem=   536870912 cpu:         0.0
 (Enter C:\G09W\l301.exe)
 Standard basis: 6-31G(d) (6D, 7F)
 Ernie: Thresh=  0.10000D-02 Tol=  0.10000D-05 Strict=F.
 There are   129 symmetry adapted cartesian basis functions of A   symmetry.
 There are   129 symmetry adapted basis functions of A   symmetry.
   129 basis functions,   244 primitive gaussians,   129 cartesian basis functions
    28 alpha electrons       28 beta electrons
       nuclear repulsion energy       334.1152678871 Hartrees.
 IExCor=  402 DFT=T Ex+Corr=B3LYP ExCW=0 ScaHFX=  0.200000
 ScaDFX=  0.800000  0.720000  1.000000  0.810000 ScalE2=  1.000000  1.000000
 IRadAn=      0 IRanWt=     -1 IRanGd=            0 ICorTp=0 IEmpDi=  4
 NAtoms=   19 NActive=   19 NUniq=   19 SFac= 1.00D+00 NAtFMM=   60 NAOKFM=F Big=F
 Integral buffers will be    131072 words long.
 Raffenetti 2 integral format.
 Two-electron integral symmetry is turned on.
 Leave Link  301 at Thu Mar 19 18:27:53 2026, MaxMem=   536870912 cpu:         0.0
 (Enter C:\G09W\l302.exe)
 NPDir=0 NMtPBC=     1 NCelOv=     1 NCel=       1 NClECP=     1 NCelD=      1
         NCelK=      1 NCelE2=     1 NClLst=     1 CellRange=     0.0.
 One-electron integrals computed using PRISM.
 NBasis=   129 RedAO= T EigKep=  3.42D-03  NBF=   129
 NBsUse=   129 1.00D-06 EigRej= -1.00D+00 NBFU=   129
 Precomputing XC quadrature grid using
 IXCGrd= 4 IRadAn=           0 IRanWt=          -1 IRanGd=           0 AccXCQ= 0.00D+00.
 Generated NRdTot=       0 NPtTot=           0 NUsed=           0 NTot=          32
 NSgBfM=   129   129   129   129   129 MxSgAt=    19 MxSgA2=    19.
 Leave Link  302 at Thu Mar 19 18:27:53 2026, MaxMem=   536870912 cpu:         0.0
 (Enter C:\G09W\l303.exe)
 DipDrv:  MaxL=1.
 Leave Link  303 at Thu Mar 19 18:27:54 2026, MaxMem=   536870912 cpu:         0.0
 (Enter C:\G09W\l401.exe)
 Initial guess from the checkpoint file:  "cyclohexanol_rdkit.chk"
 B after Tr=     0.000000    0.000000    0.000000
         Rot=    0.999759    0.009569    0.002995    0.019525 Ang=   2.52 deg.
 Guess basis will be translated and rotated to current coordinates.
 JPrj=2 DoOrth=T DoCkMO=T.
 Generating alternative initial guess.
 ExpMin= 1.61D-01 ExpMax= 5.48D+03 ExpMxC= 8.25D+02 IAcc=1 IRadAn=         1 AccDes= 0.00D+00
 Harris functional with IExCor=  402 and IRadAn=       1 diagonalized for initial guess.
 HarFok:  IExCor=  402 AccDes= 0.00D+00 IRadAn=         1 IDoV= 1 UseB2=F ITyADJ=14
 ICtDFT=  3500011 ScaDFX=  1.000000  1.000000  1.000000  1.000000
 FoFCou: FMM=F IPFlag=           0 FMFlag=      100000 FMFlg1=           0
         NFxFlg=           0 DoJE=T BraDBF=F KetDBF=T FulRan=T
         wScrn=  0.000000 ICntrl=     500 IOpCl=  0 I1Cent=   200000004 NGrid=           0
         NMat0=    1 NMatS0=      1 NMatT0=    0 NMatD0=    1 NMtDS0=    0 NMtDT0=    0
 Petite list used in FoFCou.
 Harris En= -311.143138539179    
 Leave Link  401 at Thu Mar 19 18:27:55 2026, MaxMem=   536870912 cpu:         1.0
 (Enter C:\G09W\l502.exe)
 Closed shell SCF:
 Using DIIS extrapolation, IDIIS=  1040.
 Integral symmetry usage will be decided dynamically.
 Keep R1 ints in memory in canonical form, NReq=36326980.
 IVT=       70240 IEndB=       70240 NGot=   536870912 MDV=   501642368
 LenX=   501642368 LenY=   501625286
 Requested convergence on RMS density matrix=1.00D-08 within 128 cycles.
 Requested convergence on MAX density matrix=1.00D-06.
 Requested convergence on             energy=1.00D-06.
 No special actions if energy rises.
 FoFCou: FMM=F IPFlag=           0 FMFlag=           0 FMFlg1=           0
         NFxFlg=           0 DoJE=F BraDBF=F KetDBF=F FulRan=T
         wScrn=  0.000000 ICntrl=     600 IOpCl=  0 I1Cent=           0 NGrid=           0
         NMat0=    1 NMatS0=   8385 NMatT0=    0 NMatD0=    1 NMtDS0=    0 NMtDT0=    0
 Symmetry not used in FoFCou.
 Integral accuracy reduced to 1.0D-05 until final iterations.

 Cycle   1  Pass 0  IDiag  1:
 E= -311.088107847033    
 DIIS: error= 1.25D-03 at cycle   1 NSaved=   1.
 NSaved= 1 IEnMin= 1 EnMin= -311.088107847033     IErMin= 1 ErrMin= 1.25D-03
 ErrMax= 1.25D-03  0.00D+00 EMaxC= 1.00D-01 BMatC= 7.56D-04 BMatP= 7.56D-04
 IDIUse=3 WtCom= 9.87D-01 WtEn= 1.25D-02
 Coeff-Com:  0.100D+01
 Coeff-En:   0.100D+01
 Coeff:      0.100D+01
 Gap=     1.622 Goal=   None    Shift=    0.000
 GapD=    1.622 DampG=2.000 DampE=1.000 DampFc=2.0000 IDamp=-1.
 RMSDP=3.56D-04 MaxDP=6.33D-03              OVMax= 8.01D-03

 Cycle   2  Pass 0  IDiag  1:
 E= -311.089347394133     Delta-E=       -0.001239547100 Rises=F Damp=F
 DIIS: error= 4.92D-04 at cycle   2 NSaved=   2.
 NSaved= 2 IEnMin= 2 EnMin= -311.089347394133     IErMin= 2 ErrMin= 4.92D-04
 ErrMax= 4.92D-04  0.00D+00 EMaxC= 1.00D-01 BMatC= 3.94D-05 BMatP= 7.56D-04
 IDIUse=3 WtCom= 9.95D-01 WtEn= 4.92D-03
 Coeff-Com:  0.374D-01 0.963D+00
 Coeff-En:   0.000D+00 0.100D+01
 Coeff:      0.372D-01 0.963D+00
 Gap=     0.325 Goal=   None    Shift=    0.000
 RMSDP=1.02D-04 MaxDP=2.18D-03 DE=-1.24D-03 OVMax= 2.11D-03

 Cycle   3  Pass 0  IDiag  1:
 E= -311.089339672575     Delta-E=        0.000007721558 Rises=F Damp=F
 DIIS: error= 3.93D-04 at cycle   3 NSaved=   3.
 NSaved= 3 IEnMin= 2 EnMin= -311.089347394133     IErMin= 3 ErrMin= 3.93D-04
 ErrMax= 3.93D-04  0.00D+00 EMaxC= 1.00D-01 BMatC= 5.71D-05 BMatP= 3.94D-05
 IDIUse=3 WtCom= 3.35D-01 WtEn= 6.65D-01
 Coeff-Com: -0.316D-01 0.561D+00 0.471D+00
 Coeff-En:   0.000D+00 0.543D+00 0.457D+00
 Coeff:     -0.106D-01 0.549D+00 0.462D+00
 Gap=     0.326 Goal=   None    Shift=    0.000
 RMSDP=5.90D-05 MaxDP=1.22D-03 DE= 7.72D-06 OVMax= 1.07D-03

 Cycle   4  Pass 0  IDiag  1:
 E= -311.089389157142     Delta-E=       -0.000049484567 Rises=F Damp=F
 DIIS: error= 6.29D-05 at cycle   4 NSaved=   4.
 NSaved= 4 IEnMin= 4 EnMin= -311.089389157142     IErMin= 4 ErrMin= 6.29D-05
 ErrMax= 6.29D-05  0.00D+00 EMaxC= 1.00D-01 BMatC= 9.55D-07 BMatP= 3.94D-05
 IDIUse=1 WtCom= 1.00D+00 WtEn= 0.00D+00
 Coeff-Com: -0.147D-01 0.153D+00 0.185D+00 0.677D+00
 Coeff:     -0.147D-01 0.153D+00 0.185D+00 0.677D+00
 Gap=     0.325 Goal=   None    Shift=    0.000
 RMSDP=9.28D-06 MaxDP=2.44D-04 DE=-4.95D-05 OVMax= 2.18D-04

 Initial convergence to 1.0D-05 achieved.  Increase integral accuracy.
 Cycle   5  Pass 1  IDiag  1:
 E= -311.089525364056     Delta-E=       -0.000136206914 Rises=F Damp=F
 DIIS: error= 5.56D-05 at cycle   1 NSaved=   1.
 NSaved= 1 IEnMin= 1 EnMin= -311.089525364056     IErMin= 1 ErrMin= 5.56D-05
 ErrMax= 5.56D-05  0.00D+00 EMaxC= 1.00D-01 BMatC= 4.06D-07 BMatP= 4.06D-07
 IDIUse=1 WtCom= 1.00D+00 WtEn= 0.00D+00
 Coeff-Com:  0.100D+01
 Coeff:      0.100D+01
 Gap=     0.325 Goal=   None    Shift=    0.000
 RMSDP=9.28D-06 MaxDP=2.44D-04 DE=-1.36D-04 OVMax= 2.18D-04

 Cycle   6  Pass 1  IDiag  1:
 E= -311.089525580973     Delta-E=       -0.000000216916 Rises=F Damp=F
 DIIS: error= 4.04D-05 at cycle   2 NSaved=   2.
 NSaved= 2 IEnMin= 2 EnMin= -311.089525580973     IErMin= 2 ErrMin= 4.04D-05
 ErrMax= 4.04D-05  0.00D+00 EMaxC= 1.00D-01 BMatC= 3.02D-07 BMatP= 4.06D-07
 IDIUse=1 WtCom= 1.00D+00 WtEn= 0.00D+00
 Coeff-Com:  0.452D+00 0.548D+00
 Coeff:      0.452D+00 0.548D+00
 Gap=     0.325 Goal=   None    Shift=    0.000
 RMSDP=5.45D-06 MaxDP=1.28D-04 DE=-2.17D-07 OVMax= 1.23D-04

 Cycle   7  Pass 1  IDiag  1:
 E= -311.089525798915     Delta-E=       -0.000000217942 Rises=F Damp=F
 DIIS: error= 1.56D-05 at cycle   3 NSaved=   3.
 NSaved= 3 IEnMin= 3 EnMin= -311.089525798915     IErMin= 3 ErrMin= 1.56D-05
 ErrMax= 1.56D-05  0.00D+00 EMaxC= 1.00D-01 BMatC= 4.32D-08 BMatP= 3.02D-07
 IDIUse=1 WtCom= 1.00D+00 WtEn= 0.00D+00
 Coeff-Com: -0.132D-01 0.268D+00 0.745D+00
 Coeff:     -0.132D-01 0.268D+00 0.745D+00
 Gap=     0.325 Goal=   None    Shift=    0.000
 RMSDP=1.46D-06 MaxDP=4.34D-05 DE=-2.18D-07 OVMax= 3.81D-05

 Cycle   8  Pass 1  IDiag  1:
 E= -311.089525830099     Delta-E=       -0.000000031185 Rises=F Damp=F
 DIIS: error= 2.60D-06 at cycle   4 NSaved=   4.
 NSaved= 4 IEnMin= 4 EnMin= -311.089525830099     IErMin= 4 ErrMin= 2.60D-06
 ErrMax= 2.60D-06  0.00D+00 EMaxC= 1.00D-01 BMatC= 2.06D-09 BMatP= 4.32D-08
 IDIUse=1 WtCom= 1.00D+00 WtEn= 0.00D+00
 Coeff-Com: -0.140D-01 0.138D+00 0.402D+00 0.474D+00
 Coeff:     -0.140D-01 0.138D+00 0.402D+00 0.474D+00
 Gap=     0.325 Goal=   None    Shift=    0.000
 RMSDP=3.80D-07 MaxDP=6.71D-06 DE=-3.12D-08 OVMax= 6.88D-06

 Cycle   9  Pass 1  IDiag  1:
 E= -311.089525831871     Delta-E=       -0.000000001772 Rises=F Damp=F
 DIIS: error= 3.37D-07 at cycle   5 NSaved=   5.
 NSaved= 5 IEnMin= 5 EnMin= -311.089525831871     IErMin= 5 ErrMin= 3.37D-07
 ErrMax= 3.37D-07  0.00D+00 EMaxC= 1.00D-01 BMatC= 4.73D-11 BMatP= 2.06D-09
 IDIUse=1 WtCom= 1.00D+00 WtEn= 0.00D+00
 Coeff-Com: -0.410D-02 0.310D-01 0.885D-01 0.171D+00 0.713D+00
 Coeff:     -0.410D-02 0.310D-01 0.885D-01 0.171D+00 0.713D+00
 Gap=     0.325 Goal=   None    Shift=    0.000
 RMSDP=6.77D-08 MaxDP=9.93D-07 DE=-1.77D-09 OVMax= 1.25D-06

 Cycle  10  Pass 1  IDiag  1:
 E= -311.089525831916     Delta-E=       -0.000000000045 Rises=F Damp=F
 DIIS: error= 7.48D-08 at cycle   6 NSaved=   6.
 NSaved= 6 IEnMin= 6 EnMin= -311.089525831916     IErMin= 6 ErrMin= 7.48D-08
 ErrMax= 7.48D-08  0.00D+00 EMaxC= 1.00D-01 BMatC= 1.54D-12 BMatP= 4.73D-11
 IDIUse=1 WtCom= 1.00D+00 WtEn= 0.00D+00
 Coeff-Com: -0.360D-03 0.855D-03 0.141D-02 0.119D-01 0.183D+00 0.803D+00
 Coeff:     -0.360D-03 0.855D-03 0.141D-02 0.119D-01 0.183D+00 0.803D+00
 Gap=     0.325 Goal=   None    Shift=    0.000
 RMSDP=1.37D-08 MaxDP=2.02D-07 DE=-4.51D-11 OVMax= 2.28D-07

 Cycle  11  Pass 1  IDiag  1:
 E= -311.089525831909     Delta-E=        0.000000000007 Rises=F Damp=F
 DIIS: error= 1.74D-08 at cycle   7 NSaved=   7.
 NSaved= 7 IEnMin= 6 EnMin= -311.089525831916     IErMin= 7 ErrMin= 1.74D-08
 ErrMax= 1.74D-08  0.00D+00 EMaxC= 1.00D-01 BMatC= 1.11D-13 BMatP= 1.54D-12
 IDIUse=1 WtCom= 1.00D+00 WtEn= 0.00D+00
 Coeff-Com: -0.861D-04-0.238D-03-0.109D-02 0.150D-02 0.614D-01 0.343D+00
 Coeff-Com:  0.596D+00
 Coeff:     -0.861D-04-0.238D-03-0.109D-02 0.150D-02 0.614D-01 0.343D+00
 Coeff:      0.596D+00
 Gap=     0.325 Goal=   None    Shift=    0.000
 RMSDP=3.38D-09 MaxDP=5.77D-08 DE= 7.16D-12 OVMax= 6.57D-08

 SCF Done:  E(RB3LYP) =  -311.089525832     A.U. after   11 cycles
            NFock= 11  Conv=0.34D-08     -V/T= 2.0097
 KE= 3.081059519763D+02 PE=-1.391004704722D+03 EE= 4.376939590265D+02
 Leave Link  502 at Thu Mar 19 18:28:13 2026, MaxMem=   536870912 cpu:        17.0
 (Enter C:\G09W\l701.exe)
 Compute integral first derivatives.
 ... and contract with generalized density number  0.
 Leave Link  701 at Thu Mar 19 18:28:13 2026, MaxMem=   536870912 cpu:         0.0
 (Enter C:\G09W\l702.exe)
 L702 exits ... SP integral derivatives will be done elsewhere.
 Leave Link  702 at Thu Mar 19 18:28:13 2026, MaxMem=   536870912 cpu:         0.0
 (Enter C:\G09W\l703.exe)
 Compute integral first derivatives, UseDBF=F ICtDFT=           0.
 Integral derivatives from FoFJK, PRISM(SPDF).
 Calling FoFJK, ICntrl=      2127 FMM=F ISym2X=0 I1Cent= 0 IOpClX= 0 NMat=1 NMatS=1 NMatT=0.
 FoFJK:  IHMeth= 1 ICntrl=    2127 DoSepK=F KAlg= 0 I1Cent=   0 FoldK=F
 IRaf=         0 NMat=   1 IRICut=       1 DoRegI=T DoRafI=F ISym2E= 0.
 FoFCou: FMM=F IPFlag=           0 FMFlag=      100000 FMFlg1=         800
         NFxFlg=           0 DoJE=F BraDBF=F KetDBF=F FulRan=T
         wScrn=  0.000000 ICntrl=    2127 IOpCl=  0 I1Cent=           0 NGrid=           0
         NMat0=    1 NMatS0=      1 NMatT0=    0 NMatD0=    1 NMtDS0=    0 NMtDT0=    0
 Symmetry not used in FoFCou.
 Leave Link  703 at Thu Mar 19 18:28:19 2026, MaxMem=   536870912 cpu:         5.0
 (Enter C:\G09W\l716.exe)
 Dipole        =-1.00926909D-01 4.49330409D-01 3.13464635D-01
 ***** Axes restored to original set *****
 -------------------------------------------------------------------
 Center     Atomic                   Forces (Hartrees/Bohr)
 Number     Number              X              Y              Z
 -------------------------------------------------------------------
      1        8           0.000751170   -0.000506187    0.002386976
      2        6          -0.001339730    0.000146646   -0.000685531
      3        6          -0.002568412    0.001570307   -0.000275490
      4        6           0.000769756    0.000405387   -0.000260054
      5        6           0.000325713    0.000395593    0.000800305
      6        6           0.000696133   -0.000473981   -0.000031264
      7        6          -0.000765061   -0.000837252   -0.001690962
      8        1           0.000407131   -0.000801949   -0.000749011
[...]
 ! D51   D(5,6,7,19)            65.5609         -DE/DX =    0.0                 !
 ! D52   D(16,6,7,2)          -177.7747         -DE/DX =    0.0                 !
 ! D53   D(16,6,7,18)           59.6914         -DE/DX =    0.0                 !
 ! D54   D(16,6,7,19)          -57.1683         -DE/DX =    0.0                 !
 ! D55   D(17,6,7,2)            65.357          -DE/DX =    0.0                 !
 ! D56   D(17,6,7,18)          -57.1768         -DE/DX =    0.0                 !
 ! D57   D(17,6,7,19)         -174.0366         -DE/DX =    0.0                 !
 --------------------------------------------------------------------------------
 Lowest energy point so far.  Saving SCF results.
 GradGradGradGradGradGradGradGradGradGradGradGradGradGradGradGradGradGrad

 Largest change from initial coordinates is atom   10       0.047 Angstoms.
 Leave Link  103 at Thu Mar 19 18:30:19 2026, MaxMem=   536870912 cpu:         0.0
 (Enter C:\G09W\l202.exe)
                          Input orientation:                          
 ---------------------------------------------------------------------
 Center     Atomic      Atomic             Coordinates (Angstroms)
 Number     Number       Type             X           Y           Z
 ---------------------------------------------------------------------
      1          8           0        1.830978    0.070053   -1.076816
      2          6           0        1.331920    0.177625    0.262374
      3          6           0        0.405916    1.398725    0.287300
      4          6           0       -0.870605    1.175197   -0.538340
      5          6           0       -1.610410   -0.097900   -0.097500
      6          6           0       -0.685846   -1.324716   -0.146682
      7          6           0        0.583343   -1.097026    0.687739
      8          1           0        2.377149   -0.730295   -1.122481
      9          1           0        2.172856    0.350974    0.954543
     10          1           0        0.958978    2.269172   -0.084802
     11          1           0        0.141741    1.606673    1.333810
     12          1           0       -1.528626    2.048817   -0.448139
     13          1           0       -0.598126    1.089282   -1.597323
     14          1           0       -1.981999    0.033976    0.930441
     15          1           0       -2.493033   -0.263121   -0.728575
     16          1           0       -1.213562   -2.218363    0.209818
     17          1           0       -0.398107   -1.518292   -1.188083
     18          1           0        1.257452   -1.963313    0.611006
     19          1           0        0.319984   -1.007466    1.751711
 ---------------------------------------------------------------------
                    Distance matrix (angstroms):
                    1          2          3          4          5
     1  O    0.000000
     2  C    1.433200   0.000000
     3  C    2.378441   1.532707   0.000000
     4  C    2.968139   2.547039   1.536604   0.000000
     5  C    3.581958   2.977034   2.540380   1.537019   0.000000
     6  C    3.024058   2.548673   2.966044   2.537143   1.536983
     7  C    2.456078   1.538193   2.533892   2.963146   2.535234
     8  H    0.970023   1.958225   3.225828   3.810514   4.165470
     9  H    2.078994   1.102869   2.159878   3.488652   3.952390
    10  H    2.565269   2.152716   1.096365   2.179416   3.493558
    11  H    3.320518   2.146318   1.099188   2.171626   2.832711
    12  H    3.949390   3.491262   2.169318   1.097425   2.176701
    13  H    2.685200   2.831019   2.157697   1.096845   2.164159
    14  H    4.309196   3.383638   2.824590   2.166772   1.100969
    15  H    4.350787   3.975739   3.492512   2.176516   1.097531
    16  H    4.020136   3.496141   3.963841   3.491934   2.179059
    17  H    2.739350   2.823642   3.366333   2.810747   2.162537
    18  H    2.704117   2.170416   3.483274   3.962305   3.493763
    19  H    3.383004   2.155593   2.818092   3.380215   2.823706
                    6          7          8          9         10
     6  C    0.000000
     7  C    1.535885   0.000000
     8  H    3.269167   2.574709   0.000000
     9  H    3.491821   2.166666   2.350512   0.000000
    10  H    3.952886   3.474078   3.476319   2.496642   0.000000
    11  H    3.386709   2.814678   4.061014   2.417861   1.766137
    12  H    3.490255   3.955624   4.840793   4.307105   2.523637
    13  H    2.817701   3.375992   3.519744   3.838679   2.470715
    14  H    2.164776   2.814081   4.878603   4.167000   3.830948
    15  H    2.175203   3.487898   4.908369   4.998051   4.329357
    16  H    1.097352   2.171330   4.108841   4.315546   4.994467
    17  H    1.097625   2.158569   2.885704   3.833387   4.171786
    18  H    2.181353   1.100347   2.403961   2.512352   4.299671
    19  H    2.171690   1.099735   3.545382   2.431867   3.810178
                   11         12         13         14         15
    11  H    0.000000
    12  H    2.482127   0.000000
    13  H    3.067024   1.762715   0.000000
    14  H    2.673266   2.483065   3.068935   0.000000
    15  H    3.832961   2.520671   2.484832   1.761181   0.000000
    16  H    4.210832   4.329087   3.819035   2.486528   2.518054
    17  H    4.051764   3.814427   2.647059   3.066985   2.485018
    18  H    3.809470   4.998120   4.199788   3.819063   4.330273
    19  H    2.653326   4.194945   4.056514   2.656729   3.823471
                   16         17         18         19
    16  H    0.000000
    17  H    1.763291   0.000000
    18  H    2.516329   2.485084   0.000000
    19  H    2.489070   3.069038   1.758891   0.000000
 Stoichiometry    C6H12O
 Framework group  C1[X(C6H12O)]
 Deg. of freedom    51
 Full point group                 C1      NOp   1
 RotChk:  IX=0 Diff= 1.93D-15
 Largest Abelian subgroup         C1      NOp   1
 Largest concise Abelian subgroup C1      NOp   1
                         Standard orientation:                         
 ---------------------------------------------------------------------
 Center     Atomic      Atomic             Coordinates (Angstroms)
 Number     Number       Type             X           Y           Z
 ---------------------------------------------------------------------
      1          8           0       -1.722690   -0.109242   -0.895762
      2          6           0       -1.165285   -0.037570    0.422655
      3          6           0       -0.288847   -1.283060    0.595287
      4          6           0        0.954940   -1.246180   -0.306260
      5          6           0        1.765303    0.042656   -0.094983
      6          6           0        0.889378    1.290078   -0.292497
      7          6           0       -0.346840    1.250065    0.618054
      8          1           0       -2.237885    0.699839   -1.040356
      9          1           0       -1.978659   -0.065353    1.166947
     10          1           0       -0.893418   -2.172682    0.382958
     11          1           0        0.016201   -1.343503    1.649567
     12          1           0        1.580947   -2.126164   -0.111105
     13          1           0        0.636120   -1.307735   -1.353940
     14          1           0        2.179724    0.049518    0.924988
     15          1           0        2.622860    0.069643   -0.779413
     16          1           0        1.468842    2.201452   -0.098071
     17          1           0        0.560480    1.338198   -1.338581
     18          1           0       -0.988557    2.125584    0.437974
     19          1           0       -0.037031    1.309198    1.671590
 ---------------------------------------------------------------------
 Rotational constants (GHZ):      3.5311685      2.6392579      1.9770937
 Leave Link  202 at Thu Mar 19 18:30:20 2026, MaxMem=   536870912 cpu:         0.0
 (Enter C:\G09W\l601.exe)
 Copying SCF densities to generalized density rwf, IOpCl= 0 IROHF=0.

 **********************************************************************

            Population analysis using the SCF density.

 **********************************************************************

 Orbital symmetries:
       Occupied  (A) (A) (A) (A) (A) (A) (A) (A) (A) (A) (A) (A)
                 (A) (A) (A) (A) (A) (A) (A) (A) (A) (A) (A) (A)
                 (A) (A) (A) (A)
       Virtual   (A) (A) (A) (A) (A) (A) (A) (A) (A) (A) (A) (A)
                 (A) (A) (A) (A) (A) (A) (A) (A) (A) (A) (A) (A)
                 (A) (A) (A) (A) (A) (A) (A) (A) (A) (A) (A) (A)
                 (A) (A) (A) (A) (A) (A) (A) (A) (A) (A) (A) (A)
                 (A) (A) (A) (A) (A) (A) (A) (A) (A) (A) (A) (A)
                 (A) (A) (A) (A) (A) (A) (A) (A) (A) (A) (A) (A)
                 (A) (A) (A) (A) (A) (A) (A) (A) (A) (A) (A) (A)
                 (A) (A) (A) (A) (A) (A) (A) (A) (A) (A) (A) (A)
                 (A) (A) (A) (A) (A)
 The electronic state is 1-A.
 Alpha  occ. eigenvalues --  -19.13678 -10.22766 -10.17872 -10.17435 -10.17332
 Alpha  occ. eigenvalues --  -10.17285 -10.17006  -1.00918  -0.81420  -0.73576
 Alpha  occ. eigenvalues --   -0.72598  -0.60757  -0.59864  -0.54617  -0.48897
 Alpha  occ. eigenvalues --   -0.47558  -0.44235  -0.43443  -0.39584  -0.38716
 Alpha  occ. eigenvalues --   -0.37247  -0.36770  -0.34699  -0.32984  -0.31377
 Alpha  occ. eigenvalues --   -0.30492  -0.29071  -0.25760
 Alpha virt. eigenvalues --    0.06738   0.11002   0.11965   0.13744   0.14451
 Alpha virt. eigenvalues --    0.16543   0.16913   0.17469   0.18435   0.18707
 Alpha virt. eigenvalues --    0.18984   0.19768   0.22880   0.23752   0.23875
 Alpha virt. eigenvalues --    0.26711   0.27421   0.28291   0.30122   0.51680
 Alpha virt. eigenvalues --    0.53275   0.54851   0.55882   0.56354   0.57747
 Alpha virt. eigenvalues --    0.60792   0.63600   0.64091   0.66579   0.71106
 Alpha virt. eigenvalues --    0.71679   0.73840   0.75670   0.79769   0.81218
 Alpha virt. eigenvalues --    0.84539   0.85880   0.86476   0.87330   0.89108
 Alpha virt. eigenvalues --    0.90340   0.91648   0.91852   0.94755   0.96047
 Alpha virt. eigenvalues --    0.97196   0.97674   1.00042   1.04858   1.08035
 Alpha virt. eigenvalues --    1.13732   1.16104   1.25448   1.29514   1.36429
 Alpha virt. eigenvalues --    1.38899   1.43938   1.51804   1.54994   1.60684
 Alpha virt. eigenvalues --    1.65153   1.69965   1.72011   1.73585   1.76145
 Alpha virt. eigenvalues --    1.82024   1.87540   1.90855   1.92873   1.97080
 Alpha virt. eigenvalues --    1.97714   2.01320   2.01587   2.05604   2.11981
 Alpha virt. eigenvalues --    2.13624   2.16510   2.26098   2.28382   2.31361
 Alpha virt. eigenvalues --    2.31991   2.36323   2.37599   2.39188   2.41841
 Alpha virt. eigenvalues --    2.47179   2.53476   2.59310   2.66883   2.68395
 Alpha virt. eigenvalues --    2.70273   2.72246   2.78547   2.90108   3.76985
 Alpha virt. eigenvalues --    4.13834   4.26565   4.31544   4.55492   4.56617
 Alpha virt. eigenvalues --    4.62361
          Condensed to atoms (all electrons):
               1          2          3          4          5          6
     1  O    8.291488   0.237439  -0.058963   0.000374  -0.002334  -0.001799
     2  C    0.237439   4.745962   0.380221  -0.030013  -0.012785  -0.030862
     3  C   -0.058963   0.380221   5.062397   0.369452  -0.040321  -0.021991
     4  C    0.000374  -0.030013   0.369452   4.992146   0.382409  -0.039678
     5  C   -0.002334  -0.012785  -0.040321   0.382409   4.991257   0.384984
     6  C   -0.001799  -0.030862  -0.021991  -0.039678   0.384984   4.999189
     7  C   -0.049821   0.360163  -0.037642  -0.023422  -0.039379   0.362285
     8  H    0.228442  -0.025565   0.007962   0.000005   0.000057  -0.000679
     9  H   -0.039918   0.373094  -0.052406   0.006037  -0.000269   0.006151
    10  H    0.001223  -0.030305   0.363176  -0.033073   0.004732  -0.000031
    11  H    0.003404  -0.036465   0.361252  -0.038687  -0.004232  -0.000348
    12  H    0.000084   0.004705  -0.034135   0.368418  -0.033843   0.004940
    13  H    0.007759  -0.008077  -0.038211   0.377647  -0.038522  -0.004242
    14  H    0.000020  -0.001569  -0.003180  -0.042461   0.371169  -0.043468
    15  H   -0.000021   0.000188   0.004734  -0.032407   0.369557  -0.032944
    16  H    0.000098   0.004401   0.000090   0.004804  -0.033362   0.368906
    17  H    0.010266  -0.007887  -0.001010  -0.003502  -0.039247   0.372062
    18  H   -0.002914  -0.034266   0.005435   0.000023   0.004823  -0.036241
    19  H    0.003835  -0.027977  -0.002965   0.000060  -0.004673  -0.036473
               7          8          9         10         11         12
     1  O   -0.049821   0.228442  -0.039918   0.001223   0.003404   0.000084
     2  C    0.360163  -0.025565   0.373094  -0.030305  -0.036465   0.004705
     3  C   -0.037642   0.007962  -0.052406   0.363176   0.361252  -0.034135
     4  C   -0.023422   0.000005   0.006037  -0.033073  -0.038687   0.368418
     5  C   -0.039379   0.000057  -0.000269   0.004732  -0.004232  -0.033843
     6  C    0.362285  -0.000679   0.006151  -0.000031  -0.000348   0.004940
     7  C    5.145233  -0.003938  -0.063167   0.005917  -0.001702   0.000084
     8  H   -0.003938   0.405978  -0.003487  -0.000211  -0.000318   0.000009
     9  H   -0.063167  -0.003487   0.676430  -0.004515  -0.001302  -0.000128
    10  H    0.005917  -0.000211  -0.004515   0.589274  -0.033164  -0.002367
    11  H   -0.001702  -0.000318  -0.001302  -0.033164   0.618129  -0.004887
    12  H    0.000084   0.000009  -0.000128  -0.002367  -0.004887   0.614543
    13  H   -0.000157  -0.000377   0.000143  -0.003588   0.005806  -0.036771
    14  H   -0.003627   0.000003  -0.000083  -0.000036   0.004748  -0.004519
    15  H    0.004773  -0.000001   0.000011  -0.000152  -0.000048  -0.002260
    16  H   -0.034016  -0.000061  -0.000132   0.000011  -0.000027  -0.000160
    17  H   -0.039975   0.000336   0.000241  -0.000058   0.000120  -0.000007
    18  H    0.359688   0.006041  -0.004155  -0.000183  -0.000066   0.000012
    19  H    0.343459  -0.000033   0.000555  -0.000170   0.002356  -0.000024
              13         14         15         16         17         18
     1  O    0.007759   0.000020  -0.000021   0.000098   0.010266  -0.002914
     2  C   -0.008077  -0.001569   0.000188   0.004401  -0.007887  -0.034266
     3  C   -0.038211  -0.003180   0.004734   0.000090  -0.001010   0.005435
     4  C    0.377647  -0.042461  -0.032407   0.004804  -0.003502   0.000023
     5  C   -0.038522   0.371169   0.369557  -0.033362  -0.039247   0.004823
     6  C   -0.004242  -0.043468  -0.032944   0.368906   0.372062  -0.036241
     7  C   -0.000157  -0.003627   0.004773  -0.034016  -0.039975   0.359688
     8  H   -0.000377   0.000003  -0.000001  -0.000061   0.000336   0.006041
     9  H    0.000143  -0.000083   0.000011  -0.000132   0.000241  -0.004155
    10  H   -0.003588  -0.000036  -0.000152   0.000011  -0.000058  -0.000183
    11  H    0.005806   0.004748  -0.000048  -0.000027   0.000120  -0.000066
    12  H   -0.036771  -0.004519  -0.002260  -0.000160  -0.000007   0.000012
    13  H    0.580589   0.005663  -0.004025  -0.000013   0.004205  -0.000038
    14  H    0.005663   0.626004  -0.037745  -0.004319   0.005810  -0.000025
    15  H   -0.004025  -0.037745   0.607235  -0.002304  -0.004167  -0.000164
    16  H   -0.000013  -0.004319  -0.002304   0.613161  -0.037283  -0.002566
    17  H    0.004205   0.005810  -0.004167  -0.037283   0.598805  -0.003820
    18  H   -0.000038  -0.000025  -0.000164  -0.002566  -0.003820   0.625297
    19  H    0.000093   0.004930  -0.000047  -0.004511   0.006225  -0.034377
              19
     1  O    0.003835
     2  C   -0.027977
     3  C   -0.002965
     4  C    0.000060
     5  C   -0.004673
     6  C   -0.036473
     7  C    0.343459
     8  H   -0.000033
     9  H    0.000555
    10  H   -0.000170
    11  H    0.002356
    12  H   -0.000024
    13  H    0.000093
    14  H    0.004930
    15  H   -0.000047
    16  H   -0.004511
    17  H    0.006225
    18  H   -0.034377
    19  H    0.620362
 Mulliken charges:
               1
     1  O   -0.628662
     2  C    0.139599
     3  C   -0.263893
     4  C   -0.258131
     5  C   -0.260018
     6  C   -0.249760
     7  C   -0.284756
     8  H    0.385838
     9  H    0.106900
    10  H    0.143519
    11  H    0.125432
    12  H    0.126310
    13  H    0.152116
    14  H    0.122684
    15  H    0.129785
    16  H    0.127283
    17  H    0.138885
    18  H    0.117495
    19  H    0.129376
 Sum of Mulliken charges =   0.00000
 Mulliken charges with hydrogens summed into heavy atoms:
               1
     1  O   -0.242825
     2  C    0.246499
     3  C    0.005057
     4  C    0.020295
     5  C   -0.007550
     6  C    0.016408
     7  C   -0.037885
 Electronic spatial extent (au):  <R**2>=            744.6098
 Charge=              0.0000 electrons
 Dipole moment (field-independent basis, Debye):
    X=             -0.1754    Y=              1.1689    Z=              0.7764  Tot=              1.4142
 Quadrupole moment (field-independent basis, Debye-Ang):
   XX=            -43.3747   YY=            -43.8377   ZZ=            -45.0352
   XY=             -3.1509   XZ=             -0.4856   YZ=             -1.6041
 Traceless Quadrupole moment (field-independent basis, Debye-Ang):
   XX=              0.7079   YY=              0.2448   ZZ=             -0.9527
   XY=             -3.1509   XZ=             -0.4856   YZ=             -1.6041
 Octapole moment (field-independent basis, Debye-Ang**2):
  XXX=            -14.7577  YYY=             -0.4394  ZZZ=             -3.5592  XYY=             -4.9001
  XXY=              7.4807  XXZ=             -2.7890  XZZ=             -2.2092  YZZ=              1.6752
  YYZ=             -2.3672  XYZ=              3.8038
 Hexadecapole moment (field-independent basis, Debye-Ang**3):
 XXXX=           -440.1204 YYYY=           -359.4672 ZZZZ=           -161.9470 XXXY=            -18.2408
 XXXZ=             12.0156 YYYX=             -1.2391 YYYZ=             -0.9845 ZZZX=              8.7207
 ZZZY=             -2.2030 XXYY=           -130.6200 XXZZ=           -100.5174 YYZZ=            -88.6296
 XXYZ=             -8.7523 YYXZ=              5.6226 ZZXY=             -4.1340
 N-N= 3.342802761774D+02 E-N=-1.391327396820D+03  KE= 3.081132463054D+02
 No NMR shielding tensors so no spin-rotation constants.
 Leave Link  601 at Thu Mar 19 18:30:20 2026, MaxMem=   536870912 cpu:         0.0
 (Enter C:\G09W\l9999.exe)
 1|1|UNPC-DESKTOP-GS7R1K3|FOpt|RB3LYP|6-31G(d)|C6H12O1|1172|19-Mar-2026
 |0||#p opt B3LYP/6-31G(d)||cyclohexanol||0,1|O,1.8309778661,0.07005250
 56,-1.0768160932|C,1.3319202745,0.1776250373,0.2623743867|C,0.40591597
 57,1.3987250803,0.2872995759|C,-0.8706046036,1.1751965984,-0.538340338
 7|C,-1.6104104085,-0.0978995377,-0.097500215|C,-0.6858455611,-1.324716
 179,-0.1466823386|C,0.5833431672,-1.097026271,0.6877390289|H,2.3771487
 962,-0.7302950544,-1.1224807882|H,2.1728562867,0.3509744968,0.95454259
 22|H,0.9589780089,2.2691724368,-0.0848021238|H,0.141740828,1.606673423
 ,1.3338096953|H,-1.5286261516,2.0488167861,-0.4481386245|H,-0.59812618
 ,1.0892815215,-1.5973228848|H,-1.9819985194,0.0339762375,0.9304414815|
 H,-2.4930327476,-0.2631212425,-0.7285746164|H,-1.2135624826,-2.2183627
 755,0.2098176717|H,-0.398107145,-1.5182917604,-1.1880834928|H,1.257451
 5402,-1.9633130967,0.6110056787|H,0.3199840561,-1.0074662063,1.7517114
 051||Version=EM64W-G09RevD.01|State=1-A|HF=-311.0896466|RMSD=5.839e-00
 9|RMSF=1.381e-005|Dipole=0.102886,-0.4048725,0.367487|Quadrupole=0.767
 3181,0.3394122,-1.1067304,-2.2011713,0.586579,1.1369368|PG=C01 [X(C6H1
 2O1)]||@


 THERE'S NOTHING WRONG WITH FOLLOWING A TRAIN OF THOUGHT...
 AS LONG AS IT ULTIMATELY PULLS INTO THE STATION.
 Job cpu time:       0 days  0 hours  2 minutes 58.0 seconds.
 File lengths (MBytes):  RWF=     10 Int=      0 D2E=      0 Chk=      3 Scr=      1
 Normal termination of Gaussian 09 at Thu Mar 19 18:30:21 2026.
