 Entering Gaussian System, Link 0=C:\G09W\g09.exe
 Input=thiophene_rdkit.com
 Output=C:\workspace\delta_chem\data\raw\thiophene\thiophene_rdkit.out
 Initial command:
 C:\G09W\l1.exe ".\Gau-19212.inp" "C:\workspace\delta_chem\data\raw\thiophene\thiophene_rdkit.out" /scrdir=".\"
 Entering Link 1 = C:\G09W\l1.exe PID=     16776.
  
 Copyright (c) 1988,1990,1992,1993,1995,1998,2003,2009,2013,
            Gaussian, Inc.  All Rights Reserved.
  
 This is part of the Gaussian(R) 09 program.  It is based on
 the Gaussian(R) 03 system (copyright 2003, Gaussian, Inc.),
 the Gaussian(R) 98 system (copyright 1998, Gaussian, Inc.),
 the Gaussian(R) 94 system (copyright 1995, Gaussian, Inc.),
 the Gaussian 92(TM) system (copyright 1992, Gaussian, Inc.),
 the Gaussian 90(TM) system (copyright 1990, Gaussian, Inc.),
 the Gaussian 88(TM) system (copyright 1988, Gaussian, Inc.),
 the Gaussian 86(TM) system (copyright 1986, Carnegie Mellon
 University), and the Gaussian 82(TM) system (copyright 1983,
 Carnegie Mellon University). Gaussian is a federally registered
 trademark of Gaussian, Inc.
  
 This software contains proprietary and confidential information,
 including trade secrets, belonging to Gaussian, Inc.
  
 This software is provided under written license and may be
 used, copied, transmitted, or stored only in accord with that
 written license.
  
 The following legend is applicable only to US Government
 contracts under FAR:
  
                    RESTRICTED RIGHTS LEGEND
  
 Use, reproduction and disclosure by the US Government is
 subject to restrictions as set forth in subparagraphs (a)
 and (c) of the Commercial Computer Software - Restricted
 Rights clause in FAR 52.227-19.
  
 Gaussian, Inc.
 340 Quinnipiac St., Bldg. 40, Wallingford CT 06492
  
  
 ---------------------------------------------------------------
 Warning -- This program may not be used in any manner that
 competes with the business of Gaussian, Inc. or will provide
 assistance to any competitor of Gaussian, Inc.  The licensee
 of this program is prohibited from giving any competitor of
 Gaussian, Inc. access to this program.  By using this program,
 the user acknowledges that Gaussian, Inc. is engaged in the
 business of creating and licensing software in the field of
 computational chemistry and represents and warrants to the
 licensee that it is not a competitor of Gaussian, Inc. and that
 it will not use this program in any manner prohibited above.
 ---------------------------------------------------------------
  

 Cite this work as:
 Gaussian 09, Revision D.01,
 M. J. Frisch, G. W. Trucks, H. B. Schlegel, G. E. Scuseria, 
 M. A. Robb, J. R. Cheeseman, G. Scalmani, V. Barone, B. Mennucci, 
 G. A. Petersson, H. Nakatsuji, M. Caricato, X. Li, H. P. Hratchian, 
 A. F. Izmaylov, J. Bloino, G. Zheng, J. L. Sonnenberg, M. Hada, 
 M. Ehara, K. Toyota, R. Fukuda, J. Hasegawa, M. Ishida, T. Nakajima, 
 Y. Honda, O. Kitao, H. Nakai, T. Vreven, J. A. Montgomery, Jr., 
 J. E. Peralta, F. Ogliaro, M. Bearpark, J. J. Heyd, E. Brothers, 
 K. N. Kudin, V. N. Staroverov, T. Keith, R. Kobayashi, J. Normand, 
 K. Raghavachari, A. Rendell, J. C. Burant, S. S. Iyengar, J. Tomasi, 
 M. Cossi, N. Rega, J. M. Millam, M. Klene, J. E. Knox, J. B. Cross, 
 V. Bakken, C. Adamo, J. Jaramillo, R. Gomperts, R. E. Stratmann, 
 O. Yazyev, A. J. Austin, R. Cammi, C. Pomelli, J. W. Ochterski, 
 R. L. Martin, K. Morokuma, V. G. Zakrzewski, G. A. Voth, 
 P. Salvador, J. J. Dannenberg, S. Dapprich, A. D. Daniels, 
 O. Farkas, J. B. Foresman, J. V. Ortiz, J. Cioslowski, 
 and D. J. Fox, Gaussian, Inc., Wallingford CT, 2013.
 
 ******************************************
 Gaussian 09:  EM64W-G09RevD.01 13-Apr-2013
                19-Mar-2026 
 ******************************************
 %NProcShared=4
 Will use up to    4 processors via shared memory.
 %Mem=4GB
 %Chk=thiophene_rdkit.chk
 ---------------------
 #p opt B3LYP/6-31G(d)
 ---------------------
 1/14=-1,18=20,19=15,26=3,38=1/1,3;
 2/9=110,12=2,17=6,18=5,40=1/2;
 3/5=1,6=6,7=1,11=2,16=1,25=1,30=1,71=1,74=-5/1,2,3;
 4//1;
 5/5=2,38=5/2;
 6/7=2,8=2,9=2,10=2,28=1/1;
 7//1,2,3,16;
 1/14=-1,18=20,19=15,26=3/3(2);
 2/9=110/2;
 99//99;
 2/9=110/2;
 3/5=1,6=6,7=1,11=2,16=1,25=1,30=1,71=1,74=-5/1,2,3;
 4/5=5,16=3,69=1/1;
 5/5=2,38=5/2;
 7//1,2,3,16;
 1/14=-1,18=20,19=15,26=3/3(-5);
 2/9=110/2;
 6/7=2,8=2,9=2,10=2,19=2,28=1/1;
 99/9=1/99;
 Leave Link    1 at Thu Mar 19 18:15:30 2026, MaxMem=   536870912 cpu:         1.0
 (Enter C:\G09W\l101.exe)
 ---------
 thiophene
 ---------
 Symbolic Z-matrix:
 Charge =  0 Multiplicity = 1
 C                     0.70528  -0.71525   0.04355 
 C                    -0.7196   -0.70194   0.01888 
 C                    -1.22314   0.57882  -0.04628 
 S                     0.01775   1.7573   -0.07742 
 C                     1.2346    0.55587  -0.00371 
 H                     1.31168  -1.61127   0.09343 
 H                    -1.34399  -1.58647   0.04745 
 H                    -2.26044   0.88266  -0.07725 
 H                     2.27784   0.84027   0.00135 
 
 NAtoms=      9 NQM=        9 NQMF=       0 NMMI=      0 NMMIF=      0
                NMic=       0 NMicF=      0.
                    Isotopes and Nuclear Properties:
 (Nuclear quadrupole moments (NQMom) in fm**2, nuclear magnetic moments (NMagM)
  in nuclear magnetons)

  Atom         1           2           3           4           5           6           7           8           9
 IAtWgt=          12          12          12          32          12           1           1           1           1
 AtmWgt=  12.0000000  12.0000000  12.0000000  31.9720718  12.0000000   1.0078250   1.0078250   1.0078250   1.0078250
 NucSpn=           0           0           0           0           0           1           1           1           1
 AtZEff=   0.0000000   0.0000000   0.0000000   0.0000000   0.0000000   0.0000000   0.0000000   0.0000000   0.0000000
 NQMom=    0.0000000   0.0000000   0.0000000   0.0000000   0.0000000   0.0000000   0.0000000   0.0000000   0.0000000
 NMagM=    0.0000000   0.0000000   0.0000000   0.0000000   0.0000000   2.7928460   2.7928460   2.7928460   2.7928460
 AtZNuc=   6.0000000   6.0000000   6.0000000  16.0000000   6.0000000   1.0000000   1.0000000   1.0000000   1.0000000
 Leave Link  101 at Thu Mar 19 18:15:31 2026, MaxMem=   536870912 cpu:         0.0
 (Enter C:\G09W\l103.exe)

 GradGradGradGradGradGradGradGradGradGradGradGradGradGradGradGradGradGrad
 Berny optimization.
 Initialization pass.
                           ----------------------------
                           !    Initial Parameters    !
                           ! (Angstroms and Degrees)  !
 --------------------------                            --------------------------
 ! Name  Definition              Value          Derivative Info.                !
 --------------------------------------------------------------------------------
 ! R1    R(1,2)                  1.4252         estimate D2E/DX2                !
 ! R2    R(1,5)                  1.3777         estimate D2E/DX2                !
 ! R3    R(1,6)                  1.0831         estimate D2E/DX2                !
 ! R4    R(2,3)                  1.3777         estimate D2E/DX2                !
 ! R5    R(2,7)                  1.0831         estimate D2E/DX2                !
 ! R6    R(3,4)                  1.7116         estimate D2E/DX2                !
 ! R7    R(3,8)                  1.0813         estimate D2E/DX2                !
 ! R8    R(4,5)                  1.7116         estimate D2E/DX2                !
 ! R9    R(5,9)                  1.0813         estimate D2E/DX2                !
 ! A1    A(2,1,5)              112.019          estimate D2E/DX2                !
 ! A2    A(2,1,6)              124.6317         estimate D2E/DX2                !
 ! A3    A(5,1,6)              123.3493         estimate D2E/DX2                !
 ! A4    A(1,2,3)              112.019          estimate D2E/DX2                !
 ! A5    A(1,2,7)              124.6316         estimate D2E/DX2                !
 ! A6    A(3,2,7)              123.3494         estimate D2E/DX2                !
 ! A7    A(2,3,4)              112.0831         estimate D2E/DX2                !
 ! A8    A(2,3,8)              127.819          estimate D2E/DX2                !
 ! A9    A(4,3,8)              120.0979         estimate D2E/DX2                !
 ! A10   A(3,4,5)               91.7958         estimate D2E/DX2                !
 ! A11   A(1,5,4)              112.0831         estimate D2E/DX2                !
 ! A12   A(1,5,9)              127.819          estimate D2E/DX2                !
 ! A13   A(4,5,9)              120.0979         estimate D2E/DX2                !
 ! D1    D(5,1,2,3)              0.0005         estimate D2E/DX2                !
 ! D2    D(5,1,2,7)           -179.9998         estimate D2E/DX2                !
 ! D3    D(6,1,2,3)           -179.9996         estimate D2E/DX2                !
 ! D4    D(6,1,2,7)              0.0002         estimate D2E/DX2                !
 ! D5    D(2,1,5,4)             -0.0004         estimate D2E/DX2                !
 ! D6    D(2,1,5,9)            179.9998         estimate D2E/DX2                !
 ! D7    D(6,1,5,4)            179.9997         estimate D2E/DX2                !
 ! D8    D(6,1,5,9)             -0.0001         estimate D2E/DX2                !
 ! D9    D(1,2,3,4)             -0.0003         estimate D2E/DX2                !
 ! D10   D(1,2,3,8)            179.9998         estimate D2E/DX2                !
 ! D11   D(7,2,3,4)            179.9999         estimate D2E/DX2                !
 ! D12   D(7,2,3,8)              0.0            estimate D2E/DX2                !
 ! D13   D(2,3,4,5)              0.0001         estimate D2E/DX2                !
 ! D14   D(8,3,4,5)            180.0            estimate D2E/DX2                !
 ! D15   D(3,4,5,1)              0.0002         estimate D2E/DX2                !
 ! D16   D(3,4,5,9)           -180.0            estimate D2E/DX2                !
 --------------------------------------------------------------------------------
 Trust Radius=3.00D-01 FncErr=1.00D-07 GrdErr=1.00D-06
 Number of steps in this run=     48 maximum allowed number of steps=    100.
 GradGradGradGradGradGradGradGradGradGradGradGradGradGradGradGradGradGrad

 Leave Link  103 at Thu Mar 19 18:15:31 2026, MaxMem=   536870912 cpu:         0.0
 (Enter C:\G09W\l202.exe)
                          Input orientation:                          
 ---------------------------------------------------------------------
 Center     Atomic      Atomic             Coordinates (Angstroms)
 Number     Number       Type             X           Y           Z
 ---------------------------------------------------------------------
      1          6           0        0.705279   -0.715248    0.043552
      2          6           0       -0.719598   -0.701940    0.018881
      3          6           0       -1.223138    0.578821   -0.046276
      4         16           0        0.017754    1.757303   -0.077417
      5          6           0        1.234601    0.555866   -0.003711
      6          1           0        1.311679   -1.611270    0.093425
      7          1           0       -1.343985   -1.586467    0.047446
      8          1           0       -2.260436    0.882661   -0.077249
      9          1           0        2.277842    0.840274    0.001348
 ---------------------------------------------------------------------
                    Distance matrix (angstroms):
                    1          2          3          4          5
     1  C    0.000000
     2  C    1.425153   0.000000
     3  C    2.324108   1.377732   0.000000
     4  S    2.569209   2.569209   1.711608   0.000000
     5  C    1.377732   2.324108   2.458215   1.711607   0.000000
     6  H    1.083081   2.226774   3.352807   3.612577   2.170681
     7  H    2.226774   1.083080   2.170682   3.612578   3.352807
     8  H    3.370960   2.212325   1.081326   2.440317   3.511052
     9  H    2.212326   3.370961   3.511052   2.440316   1.081326
                    6          7          8          9
     6  H    0.000000
     7  H    2.656178   0.000000
     8  H    4.359911   2.636669   0.000000
     9  H    2.636668   4.359911   4.539156   0.000000
 Stoichiometry    C4H4S
 Framework group  C1[X(C4H4S)]
 Deg. of freedom    21
 Full point group                 C1      NOp   1
 Largest Abelian subgroup         C1      NOp   1
 Largest concise Abelian subgroup C1      NOp   1
                         Standard orientation:                         
 ---------------------------------------------------------------------
 Center     Atomic      Atomic             Coordinates (Angstroms)
 Number     Number       Type             X           Y           Z
 ---------------------------------------------------------------------
      1          6           0       -1.276873    0.712577    0.000002
      2          6           0       -1.276876   -0.712575   -0.000002
      3          6           0        0.000364   -1.229107    0.000001
      4         16           0        1.191540   -0.000001    0.000000
      5          6           0        0.000367    1.229107   -0.000002
      6          1           0       -2.168055    1.328092    0.000007
      7          1           0       -2.168060   -1.328086   -0.000004
      8          1           0        0.294787   -2.269579    0.000002
      9          1           0        0.294793    2.269578   -0.000003
 ---------------------------------------------------------------------
 Rotational constants (GHZ):      8.1014753      5.3757530      3.2314901
 Leave Link  202 at Thu Mar 19 18:15:32 2026, MaxMem=   536870912 cpu:         0.0
 (Enter C:\G09W\l301.exe)
 Standard basis: 6-31G(d) (6D, 7F)
 Ernie: Thresh=  0.10000D-02 Tol=  0.10000D-05 Strict=F.
 There are    87 symmetry adapted cartesian basis functions of A   symmetry.
 There are    87 symmetry adapted basis functions of A   symmetry.
    87 basis functions,   180 primitive gaussians,    87 cartesian basis functions
    22 alpha electrons       22 beta electrons
       nuclear repulsion energy       202.6278259702 Hartrees.
 IExCor=  402 DFT=T Ex+Corr=B3LYP ExCW=0 ScaHFX=  0.200000
 ScaDFX=  0.800000  0.720000  1.000000  0.810000 ScalE2=  1.000000  1.000000
 IRadAn=      0 IRanWt=     -1 IRanGd=            0 ICorTp=0 IEmpDi=  4
 NAtoms=    9 NActive=    9 NUniq=    9 SFac= 1.00D+00 NAtFMM=   60 NAOKFM=F Big=F
 Integral buffers will be    131072 words long.
 Raffenetti 2 integral format.
 Two-electron integral symmetry is turned on.
 Leave Link  301 at Thu Mar 19 18:15:32 2026, MaxMem=   536870912 cpu:         0.0
 (Enter C:\G09W\l302.exe)
 NPDir=0 NMtPBC=     1 NCelOv=     1 NCel=       1 NClECP=     1 NCelD=      1
         NCelK=      1 NCelE2=     1 NClLst=     1 CellRange=     0.0.
 One-electron integrals computed using PRISM.
 NBasis=    87 RedAO= T EigKep=  1.72D-03  NBF=    87
 NBsUse=    87 1.00D-06 EigRej= -1.00D+00 NBFU=    87
 Precomputing XC quadrature grid using
 IXCGrd= 4 IRadAn=           0 IRanWt=          -1 IRanGd=           0 AccXCQ= 0.00D+00.
 Generated NRdTot=       0 NPtTot=           0 NUsed=           0 NTot=          32
 NSgBfM=    87    87    87    87    87 MxSgAt=     9 MxSgA2=     9.
 Leave Link  302 at Thu Mar 19 18:15:32 2026, MaxMem=   536870912 cpu:         0.0
 (Enter C:\G09W\l303.exe)
 DipDrv:  MaxL=1.
 Leave Link  303 at Thu Mar 19 18:15:32 2026, MaxMem=   536870912 cpu:         0.0
 (Enter C:\G09W\l401.exe)
 ExpMin= 1.17D-01 ExpMax= 2.19D+04 ExpMxC= 3.30D+03 IAcc=1 IRadAn=         1 AccDes= 0.00D+00
 Harris functional with IExCor=  402 and IRadAn=       1 diagonalized for initial guess.
 HarFok:  IExCor=  402 AccDes= 0.00D+00 IRadAn=         1 IDoV= 1 UseB2=F ITyADJ=14
 ICtDFT=  3500011 ScaDFX=  1.000000  1.000000  1.000000  1.000000
 FoFCou: FMM=F IPFlag=           0 FMFlag=      100000 FMFlg1=           0
         NFxFlg=           0 DoJE=T BraDBF=F KetDBF=T FulRan=T
         wScrn=  0.000000 ICntrl=     500 IOpCl=  0 I1Cent=   200000004 NGrid=           0
         NMat0=    1 NMatS0=      1 NMatT0=    0 NMatD0=    1 NMtDS0=    0 NMtDT0=    0
 Petite list used in FoFCou.
 Harris En= -552.993344737328    
 JPrj=0 DoOrth=F DoCkMO=F.
 Leave Link  401 at Thu Mar 19 18:15:33 2026, MaxMem=   536870912 cpu:         0.0
 (Enter C:\G09W\l502.exe)
 Closed shell SCF:
 Using DIIS extrapolation, IDIIS=  1040.
 Integral symmetry usage will be decided dynamically.
 Keep R1 ints in memory in canonical form, NReq=8277689.
 IVT=       42435 IEndB=       42435 NGot=   536870912 MDV=   529499772
 LenX=   529499772 LenY=   529491762
 Requested convergence on RMS density matrix=1.00D-08 within 128 cycles.
 Requested convergence on MAX density matrix=1.00D-06.
 Requested convergence on             energy=1.00D-06.
 No special actions if energy rises.
 FoFCou: FMM=F IPFlag=           0 FMFlag=           0 FMFlg1=           0
         NFxFlg=           0 DoJE=F BraDBF=F KetDBF=F FulRan=T
         wScrn=  0.000000 ICntrl=     600 IOpCl=  0 I1Cent=           0 NGrid=           0
         NMat0=    1 NMatS0=   3828 NMatT0=    0 NMatD0=    1 NMtDS0=    0 NMtDT0=    0
 Symmetry not used in FoFCou.
 Integral accuracy reduced to 1.0D-05 until final iterations.

 Cycle   1  Pass 0  IDiag  1:
 E= -552.776254241103    
 DIIS: error= 4.98D-02 at cycle   1 NSaved=   1.
 NSaved= 1 IEnMin= 1 EnMin= -552.776254241103     IErMin= 1 ErrMin= 4.98D-02
 ErrMax= 4.98D-02  0.00D+00 EMaxC= 1.00D-01 BMatC= 2.05D-01 BMatP= 2.05D-01
 IDIUse=3 WtCom= 5.02D-01 WtEn= 4.98D-01
 Coeff-Com:  0.100D+01
 Coeff-En:   0.100D+01
 Coeff:      0.100D+01
 Gap=     0.261 Goal=   None    Shift=    0.000
 GapD=    0.261 DampG=1.000 DampE=0.500 DampFc=0.5000 IDamp=-1.
 Damping current iteration by 5.00D-01
 RMSDP=1.53D-02 MaxDP=2.58D-01              OVMax= 3.49D-01

 Cycle   2  Pass 0  IDiag  1:
 E= -552.835896794027     Delta-E=       -0.059642552924 Rises=F Damp=T
 DIIS: error= 1.87D-02 at cycle   2 NSaved=   2.
 NSaved= 2 IEnMin= 2 EnMin= -552.835896794027     IErMin= 2 ErrMin= 1.87D-02
 ErrMax= 1.87D-02  0.00D+00 EMaxC= 1.00D-01 BMatC= 2.52D-02 BMatP= 2.05D-01
 IDIUse=3 WtCom= 8.13D-01 WtEn= 1.87D-01
 Coeff-Com:  0.211D+00 0.789D+00
 Coeff-En:   0.367D+00 0.633D+00
 Coeff:      0.240D+00 0.760D+00
 Gap=     0.252 Goal=   None    Shift=    0.000
 RMSDP=4.59D-03 MaxDP=6.92D-02 DE=-5.96D-02 OVMax= 3.01D-01

 Cycle   3  Pass 0  IDiag  1:
 E= -552.993544549084     Delta-E=       -0.157647755057 Rises=F Damp=F
 DIIS: error= 1.17D-02 at cycle   3 NSaved=   3.
 NSaved= 3 IEnMin= 3 EnMin= -552.993544549084     IErMin= 3 ErrMin= 1.17D-02
 ErrMax= 1.17D-02  0.00D+00 EMaxC= 1.00D-01 BMatC= 7.62D-03 BMatP= 2.52D-02
 IDIUse=3 WtCom= 8.83D-01 WtEn= 1.17D-01
 Coeff-Com:  0.871D-01 0.343D+00 0.569D+00
 Coeff-En:   0.000D+00 0.000D+00 0.100D+01
 Coeff:      0.770D-01 0.303D+00 0.620D+00
 Gap=     0.223 Goal=   None    Shift=    0.000
 RMSDP=1.61D-03 MaxDP=2.64D-02 DE=-1.58D-01 OVMax= 5.69D-02

 Cycle   4  Pass 0  IDiag  1:
 E= -552.998420727003     Delta-E=       -0.004876177920 Rises=F Damp=F
 DIIS: error= 6.90D-03 at cycle   4 NSaved=   4.
 NSaved= 4 IEnMin= 4 EnMin= -552.998420727003     IErMin= 4 ErrMin= 6.90D-03
 ErrMax= 6.90D-03  0.00D+00 EMaxC= 1.00D-01 BMatC= 3.44D-03 BMatP= 7.62D-03
 IDIUse=3 WtCom= 9.31D-01 WtEn= 6.90D-02
 Coeff-Com:  0.145D-01 0.350D-01 0.394D+00 0.557D+00
 Coeff-En:   0.000D+00 0.000D+00 0.325D+00 0.675D+00
 Coeff:      0.135D-01 0.325D-01 0.389D+00 0.565D+00
 Gap=     0.223 Goal=   None    Shift=    0.000
 RMSDP=6.70D-04 MaxDP=1.07D-02 DE=-4.88D-03 OVMax= 2.34D-02

 Cycle   5  Pass 0  IDiag  1:
 E= -553.001944439962     Delta-E=       -0.003523712959 Rises=F Damp=F
 DIIS: error= 7.39D-04 at cycle   5 NSaved=   5.
 NSaved= 5 IEnMin= 5 EnMin= -553.001944439962     IErMin= 5 ErrMin= 7.39D-04
 ErrMax= 7.39D-04  0.00D+00 EMaxC= 1.00D-01 BMatC= 5.12D-05 BMatP= 3.44D-03
 IDIUse=3 WtCom= 9.93D-01 WtEn= 7.39D-03
 Coeff-Com:  0.272D-02-0.983D-02 0.102D+00 0.202D+00 0.703D+00
 Coeff-En:   0.000D+00 0.000D+00 0.000D+00 0.000D+00 0.100D+01
 Coeff:      0.270D-02-0.975D-02 0.101D+00 0.200D+00 0.705D+00
 Gap=     0.224 Goal=   None    Shift=    0.000
 RMSDP=1.39D-04 MaxDP=2.81D-03 DE=-3.52D-03 OVMax= 2.48D-03

 Cycle   6  Pass 0  IDiag  1:
 E= -553.002000290870     Delta-E=       -0.000055850908 Rises=F Damp=F
 DIIS: error= 9.81D-05 at cycle   6 NSaved=   6.
 NSaved= 6 IEnMin= 6 EnMin= -553.002000290870     IErMin= 6 ErrMin= 9.81D-05
 ErrMax= 9.81D-05  0.00D+00 EMaxC= 1.00D-01 BMatC= 9.74D-07 BMatP= 5.12D-05
 IDIUse=1 WtCom= 1.00D+00 WtEn= 0.00D+00
 Coeff-Com:  0.826D-03-0.405D-02 0.302D-01 0.599D-01 0.234D+00 0.679D+00
 Coeff:      0.826D-03-0.405D-02 0.302D-01 0.599D-01 0.234D+00 0.679D+00
 Gap=     0.224 Goal=   None    Shift=    0.000
 RMSDP=2.02D-05 MaxDP=6.54D-04 DE=-5.59D-05 OVMax= 5.14D-04

 Cycle   7  Pass 0  IDiag  1:
 E= -553.002001268307     Delta-E=       -0.000000977437 Rises=F Damp=F
 DIIS: error= 3.98D-05 at cycle   7 NSaved=   7.
 NSaved= 7 IEnMin= 7 EnMin= -553.002001268307     IErMin= 7 ErrMin= 3.98D-05
 ErrMax= 3.98D-05  0.00D+00 EMaxC= 1.00D-01 BMatC= 1.37D-07 BMatP= 9.74D-07
 IDIUse=1 WtCom= 1.00D+00 WtEn= 0.00D+00
 Coeff-Com:  0.147D-03-0.662D-03-0.491D-03-0.198D-02 0.165D-02 0.251D+00
 Coeff-Com:  0.751D+00
 Coeff:      0.147D-03-0.662D-03-0.491D-03-0.198D-02 0.165D-02 0.251D+00
 Coeff:      0.751D+00
 Gap=     0.224 Goal=   None    Shift=    0.000
 RMSDP=6.08D-06 MaxDP=2.05D-04 DE=-9.77D-07 OVMax= 1.16D-04

 Initial convergence to 1.0D-05 achieved.  Increase integral accuracy.
 Cycle   8  Pass 1  IDiag  1:
 E= -553.001940721431     Delta-E=        0.000060546876 Rises=F Damp=F
 DIIS: error= 1.65D-05 at cycle   1 NSaved=   1.
 NSaved= 1 IEnMin= 1 EnMin= -553.001940721431     IErMin= 1 ErrMin= 1.65D-05
 ErrMax= 1.65D-05  0.00D+00 EMaxC= 1.00D-01 BMatC= 2.19D-08 BMatP= 2.19D-08
 IDIUse=1 WtCom= 1.00D+00 WtEn= 0.00D+00
 Coeff-Com:  0.100D+01
 Coeff:      0.100D+01
 Gap=     0.224 Goal=   None    Shift=    0.000
 RMSDP=6.08D-06 MaxDP=2.05D-04 DE= 6.05D-05 OVMax= 7.75D-05

 Cycle   9  Pass 1  IDiag  1:
 E= -553.001940750304     Delta-E=       -0.000000028873 Rises=F Damp=F
 DIIS: error= 4.17D-06 at cycle   2 NSaved=   2.
 NSaved= 2 IEnMin= 2 EnMin= -553.001940750304     IErMin= 2 ErrMin= 4.17D-06
 ErrMax= 4.17D-06  0.00D+00 EMaxC= 1.00D-01 BMatC= 1.88D-09 BMatP= 2.19D-08
 IDIUse=1 WtCom= 1.00D+00 WtEn= 0.00D+00
 Coeff-Com:  0.114D+00 0.886D+00
 Coeff:      0.114D+00 0.886D+00
 Gap=     0.224 Goal=   None    Shift=    0.000
 RMSDP=1.42D-06 MaxDP=3.31D-05 DE=-2.89D-08 OVMax= 3.34D-05

 Cycle  10  Pass 1  IDiag  1:
 E= -553.001940750419     Delta-E=       -0.000000000116 Rises=F Damp=F
 DIIS: error= 4.00D-06 at cycle   3 NSaved=   3.
 NSaved= 3 IEnMin= 3 EnMin= -553.001940750419     IErMin= 3 ErrMin= 4.00D-06
 ErrMax= 4.00D-06  0.00D+00 EMaxC= 1.00D-01 BMatC= 1.91D-09 BMatP= 1.88D-09
 IDIUse=1 WtCom= 1.00D+00 WtEn= 0.00D+00
 Coeff-Com:  0.134D-01 0.499D+00 0.487D+00
 Coeff:      0.134D-01 0.499D+00 0.487D+00
 Gap=     0.224 Goal=   None    Shift=    0.000
 RMSDP=7.08D-07 MaxDP=9.74D-06 DE=-1.16D-10 OVMax= 2.24D-05

 Cycle  11  Pass 1  IDiag  1:
 E= -553.001940752362     Delta-E=       -0.000000001943 Rises=F Damp=F
 DIIS: error= 1.64D-06 at cycle   4 NSaved=   4.
 NSaved= 4 IEnMin= 4 EnMin= -553.001940752362     IErMin= 4 ErrMin= 1.64D-06
 ErrMax= 1.64D-06  0.00D+00 EMaxC= 1.00D-01 BMatC= 1.78D-10 BMatP= 1.88D-09
 IDIUse=1 WtCom= 1.00D+00 WtEn= 0.00D+00
 Coeff-Com: -0.841D-02 0.206D+00 0.273D+00 0.529D+00
 Coeff:     -0.841D-02 0.206D+00 0.273D+00 0.529D+00
 Gap=     0.224 Goal=   None    Shift=    0.000
 RMSDP=2.30D-07 MaxDP=6.62D-06 DE=-1.94D-09 OVMax= 8.22D-06

 Cycle  12  Pass 1  IDiag  1:
 E= -553.001940752554     Delta-E=       -0.000000000192 Rises=F Damp=F
 DIIS: error= 3.97D-07 at cycle   5 NSaved=   5.
 NSaved= 5 IEnMin= 5 EnMin= -553.001940752554     IErMin= 5 ErrMin= 3.97D-07
 ErrMax= 3.97D-07  0.00D+00 EMaxC= 1.00D-01 BMatC= 1.35D-11 BMatP= 1.78D-10
 IDIUse=1 WtCom= 1.00D+00 WtEn= 0.00D+00
 Coeff-Com: -0.402D-02 0.535D-01 0.773D-01 0.278D+00 0.596D+00
 Coeff:     -0.402D-02 0.535D-01 0.773D-01 0.278D+00 0.596D+00
 Gap=     0.224 Goal=   None    Shift=    0.000
 RMSDP=5.45D-08 MaxDP=8.04D-07 DE=-1.92D-10 OVMax= 1.60D-06

 Cycle  13  Pass 1  IDiag  1:
 E= -553.001940752563     Delta-E=       -0.000000000009 Rises=F Damp=F
 DIIS: error= 5.98D-08 at cycle   6 NSaved=   6.
 NSaved= 6 IEnMin= 6 EnMin= -553.001940752563     IErMin= 6 ErrMin= 5.98D-08
 ErrMax= 5.98D-08  0.00D+00 EMaxC= 1.00D-01 BMatC= 4.29D-13 BMatP= 1.35D-11
 IDIUse=1 WtCom= 1.00D+00 WtEn= 0.00D+00
 Coeff-Com: -0.130D-02 0.132D-01 0.200D-01 0.102D+00 0.267D+00 0.599D+00
 Coeff:     -0.130D-02 0.132D-01 0.200D-01 0.102D+00 0.267D+00 0.599D+00
 Gap=     0.224 Goal=   None    Shift=    0.000
 RMSDP=1.11D-08 MaxDP=2.66D-07 DE=-9.09D-12 OVMax= 2.63D-07

 Cycle  14  Pass 1  IDiag  1:
 E= -553.001940752571     Delta-E=       -0.000000000008 Rises=F Damp=F
 DIIS: error= 2.38D-08 at cycle   7 NSaved=   7.
 NSaved= 7 IEnMin= 7 EnMin= -553.001940752571     IErMin= 7 ErrMin= 2.38D-08
 ErrMax= 2.38D-08  0.00D+00 EMaxC= 1.00D-01 BMatC= 6.09D-14 BMatP= 4.29D-13
 IDIUse=1 WtCom= 1.00D+00 WtEn= 0.00D+00
 Coeff-Com: -0.201D-03 0.303D-03 0.700D-03 0.136D-01 0.502D-01 0.303D+00
 Coeff-Com:  0.632D+00
 Coeff:     -0.201D-03 0.303D-03 0.700D-03 0.136D-01 0.502D-01 0.303D+00
 Coeff:      0.632D+00
 Gap=     0.224 Goal=   None    Shift=    0.000
 RMSDP=3.73D-09 MaxDP=1.04D-07 DE=-7.84D-12 OVMax= 1.06D-07

 SCF Done:  E(RB3LYP) =  -553.001940753     A.U. after   14 cycles
            NFock= 14  Conv=0.37D-08     -V/T= 2.0051
 KE= 5.501987331562D+02 PE=-1.709667959247D+03 EE= 4.038394593684D+02
 Leave Link  502 at Thu Mar 19 18:15:42 2026, MaxMem=   536870912 cpu:         9.0
 (Enter C:\G09W\l601.exe)
 Copying SCF densities to generalized density rwf, IOpCl= 0 IROHF=0.

 **********************************************************************

            Population analysis using the SCF density.

 **********************************************************************

 Orbital symmetries:
       Occupied  (A) (A) (A) (A) (A) (A) (A) (A) (A) (A) (A) (A)
                 (A) (A) (A) (A) (A) (A) (A) (A) (A) (A)
       Virtual   (A) (A) (A) (A) (A) (A) (A) (A) (A) (A) (A) (A)
                 (A) (A) (A) (A) (A) (A) (A) (A) (A) (A) (A) (A)
                 (A) (A) (A) (A) (A) (A) (A) (A) (A) (A) (A) (A)
                 (A) (A) (A) (A) (A) (A) (A) (A) (A) (A) (A) (A)
                 (A) (A) (A) (A) (A) (A) (A) (A) (A) (A) (A) (A)
                 (A) (A) (A) (A) (A)
 The electronic state is 1-A.
 Alpha  occ. eigenvalues --  -88.90617 -10.20945 -10.20945 -10.19087 -10.19043
 Alpha  occ. eigenvalues --   -7.96817  -5.93202  -5.92832  -5.92549  -0.87713
 Alpha  occ. eigenvalues --   -0.73242  -0.71788  -0.55928  -0.55164  -0.51173
 Alpha  occ. eigenvalues --   -0.40843  -0.38831  -0.38684  -0.37543  -0.34388
 Alpha  occ. eigenvalues --   -0.24900  -0.23051
 Alpha virt. eigenvalues --   -0.00654   0.03931   0.06992   0.10241   0.11323
 Alpha virt. eigenvalues --    0.15493   0.17571   0.17753   0.24352   0.29971
 Alpha virt. eigenvalues --    0.30405   0.36869   0.39688   0.42387   0.44628
 Alpha virt. eigenvalues --    0.48449   0.53311   0.55310   0.57990   0.59559
 Alpha virt. eigenvalues --    0.61426   0.64697   0.65331   0.78892   0.79452
 Alpha virt. eigenvalues --    0.80370   0.80388   0.83393   0.85398   0.85405
 Alpha virt. eigenvalues --    0.91717   0.92148   0.98997   1.02307   1.05674
 Alpha virt. eigenvalues --    1.08843   1.11960   1.16741   1.31723   1.36519
 Alpha virt. eigenvalues --    1.42554   1.46492   1.50183   1.73945   1.81460
 Alpha virt. eigenvalues --    1.85919   1.89685   1.94335   2.02242   2.17116
 Alpha virt. eigenvalues --    2.24048   2.24488   2.26314   2.26788   2.45200
 Alpha virt. eigenvalues --    2.47216   2.60364   2.63670   2.87449   2.98615
 Alpha virt. eigenvalues --    3.94675   4.10565   4.11135   4.31691   4.43744
          Condensed to atoms (all electrons):
               1          2          3          4          5          6
     1  C    4.807815   0.532085  -0.048655  -0.083379   0.588688   0.362900
     2  C    0.532085   4.807815   0.588687  -0.083379  -0.048655  -0.042244
     3  C   -0.048655   0.588687   5.229527   0.328415  -0.068660   0.006313
     4  S   -0.083379  -0.083379   0.328415  15.307029   0.328415   0.007214
     5  C    0.588688  -0.048655  -0.068660   0.328415   5.229526  -0.049505
     6  H    0.362900  -0.042244   0.006313   0.007214  -0.049505   0.581047
     7  H   -0.042244   0.362901  -0.049505   0.007214   0.006313  -0.002576
     8  H    0.004774  -0.022619   0.358969  -0.040198   0.002979  -0.000121
     9  H   -0.022619   0.004774   0.002979  -0.040198   0.358970  -0.003606
               7          8          9
     1  C   -0.042244   0.004774  -0.022619
     2  C    0.362901  -0.022619   0.004774
     3  C   -0.049505   0.358969   0.002979
     4  S    0.007214  -0.040198  -0.040198
     5  C    0.006313   0.002979   0.358970
     6  H   -0.002576  -0.000121  -0.003606
     7  H    0.581046  -0.003606  -0.000121
     8  H   -0.003606   0.527477  -0.000080
     9  H   -0.000121  -0.000080   0.527477
 Mulliken charges:
               1
     1  C   -0.099366
     2  C   -0.099366
     3  C   -0.348071
     4  S    0.268868
     5  C   -0.348071
     6  H    0.140578
     7  H    0.140578
     8  H    0.172425
     9  H    0.172425
 Sum of Mulliken charges =   0.00000
 Mulliken charges with hydrogens summed into heavy atoms:
               1
     1  C    0.041211
     2  C    0.041212
     3  C   -0.175646
     4  S    0.268868
     5  C   -0.175645
 Electronic spatial extent (au):  <R**2>=            398.9610
 Charge=              0.0000 electrons
 Dipole moment (field-independent basis, Debye):
    X=             -0.5389    Y=              0.0000    Z=              0.0000  Tot=              0.5389
 Quadrupole moment (field-independent basis, Debye-Ang):
   XX=            -34.2575   YY=            -31.1337   ZZ=            -39.3825
   XY=              0.0000   XZ=              0.0000   YZ=              0.0000
 Traceless Quadrupole moment (field-independent basis, Debye-Ang):
   XX=              0.6670   YY=              3.7909   ZZ=             -4.4579
   XY=              0.0000   XZ=              0.0000   YZ=              0.0000
 Octapole moment (field-independent basis, Debye-Ang**2):
  XXX=             -5.4602  YYY=              0.0000  ZZZ=              0.0000  XYY=              1.9124
  XXY=              0.0000  XXZ=              0.0000  XZZ=              1.6410  YZZ=              0.0000
  YYZ=              0.0000  XYZ=              0.0000
 Hexadecapole moment (field-independent basis, Debye-Ang**3):
 XXXX=           -273.8001 YYYY=           -191.8596 ZZZZ=            -44.6196 XXXY=              0.0000
 XXXZ=              0.0000 YYYX=              0.0000 YYYZ=              0.0000 ZZZX=              0.0000
 ZZZY=              0.0000 XXYY=            -75.6041 XXZZ=            -59.3576 YYZZ=            -48.3944
 XXYZ=              0.0000 YYXZ=              0.0000 ZZXY=              0.0000
 N-N= 2.026278259702D+02 E-N=-1.709667960040D+03  KE= 5.501987331562D+02
 No NMR shielding tensors so no spin-rotation constants.
 Leave Link  601 at Thu Mar 19 18:15:42 2026, MaxMem=   536870912 cpu:         0.0
 (Enter C:\G09W\l701.exe)
 Compute integral first derivatives.
 ... and contract with generalized density number  0.
 Leave Link  701 at Thu Mar 19 18:15:43 2026, MaxMem=   536870912 cpu:         0.0
 (Enter C:\G09W\l702.exe)
 L702 exits ... SP integral derivatives will be done elsewhere.
 Leave Link  702 at Thu Mar 19 18:15:44 2026, MaxMem=   536870912 cpu:         0.0
 (Enter C:\G09W\l703.exe)
 Compute integral first derivatives, UseDBF=F ICtDFT=           0.
 Integral derivatives from FoFJK, PRISM(SPDF).
 Calling FoFJK, ICntrl=      2127 FMM=F ISym2X=0 I1Cent= 0 IOpClX= 0 NMat=1 NMatS=1 NMatT=0.
 FoFJK:  IHMeth= 1 ICntrl=    2127 DoSepK=F KAlg= 0 I1Cent=   0 FoldK=F
 IRaf=         0 NMat=   1 IRICut=       1 DoRegI=T DoRafI=F ISym2E= 0.
 FoFCou: FMM=F IPFlag=           0 FMFlag=      100000 FMFlg1=         800
         NFxFlg=           0 DoJE=F BraDBF=F KetDBF=F FulRan=T
         wScrn=  0.000000 ICntrl=    2127 IOpCl=  0 I1Cent=           0 NGrid=           0
         NMat0=    1 NMatS0=      1 NMatT0=    0 NMatD0=    1 NMtDS0=    0 NMtDT0=    0
 Symmetry not used in FoFCou.
 Leave Link  703 at Thu Mar 19 18:15:46 2026, MaxMem=   536870912 cpu:         2.0
 (Enter C:\G09W\l716.exe)
 Dipole        =-2.12024800D-01 4.97110203D-07 7.15867705D-07
 ***** Axes restored to original set *****
 -------------------------------------------------------------------
 Center     Atomic                   Forces (Hartrees/Bohr)
 Number     Number              X              Y              Z
 -------------------------------------------------------------------
      1        6           0.002086096    0.008133918   -0.000323846
      2        6          -0.001920844    0.008171743   -0.000394564
      3        6          -0.008525534   -0.012678593    0.000416912
      4       16           0.000111501    0.011068868   -0.000487512
      5        6           0.008267815   -0.012835524    0.000706993
      6        1           0.000329110   -0.000807469    0.000041474
      7        1          -0.000345592   -0.000801216    0.000029508
      8        1          -0.000497067   -0.000121183   -0.000002987
      9        1           0.000494516   -0.000130544    0.000014021
 -------------------------------------------------------------------
 Cartesian Forces:  Max     0.012835524 RMS     0.005211349
 Leave Link  716 at Thu Mar 19 18:15:46 2026, MaxMem=   536870912 cpu:         0.0
 (Enter C:\G09W\l103.exe)

 GradGradGradGradGradGradGradGradGradGradGradGradGradGradGradGradGradGrad
 Berny optimization.
 FormGI is forming the generalized inverse of G from B-inverse, IUseBI=4.
 Internal  Forces:  Max     0.009618151 RMS     0.003012987
 Search for a local minimum.
 Step number   1 out of a maximum of   48
 All quantities printed in internal units (Hartrees-Bohrs-Radians)
 RMS Force = .30130D-02 SwitMx=.10000D-02 MixMth= 1
 Mixed Optimization -- RFO/linear search
 Second derivative matrix not updated -- first step.
 ITU=  0
     Eigenvalues ---    0.01820   0.01920   0.02077   0.02124   0.02164
     Eigenvalues ---    0.02213   0.16000   0.16000   0.16000   0.16000
     Eigenvalues ---    0.22000   0.22662   0.33237   0.33605   0.35625
     Eigenvalues ---    0.35625   0.35835   0.35835   0.40557   0.45978
     Eigenvalues ---    0.49116
 RFO step:  Lambda=-1.00863135D-03 EMin= 1.82044015D-02
 Linear search not attempted -- first point.
 Iteration  1 RMS(Cart)=  0.01142176 RMS(Int)=  0.00005200
 Iteration  2 RMS(Cart)=  0.00005708 RMS(Int)=  0.00002153
 Iteration  3 RMS(Cart)=  0.00000000 RMS(Int)=  0.00002153
 ITry= 1 IFail=0 DXMaxC= 3.11D-02 DCOld= 1.00D+10 DXMaxT= 3.00D-01 DXLimC= 3.00D+00 Rises=F
 Variable       Old X    -DE/DX   Delta X   Delta X   Delta X     New X
                                 (Linear)    (Quad)   (Total)
    R1        2.69315   0.00321   0.00000   0.00655   0.00659   2.69973
    R2        2.60354  -0.00649   0.00000  -0.01344  -0.01343   2.59011
    R3        2.04673   0.00085   0.00000   0.00239   0.00239   2.04912
    R4        2.60354  -0.00649   0.00000  -0.01344  -0.01343   2.59011
    R5        2.04673   0.00085   0.00000   0.00239   0.00239   2.04912
    R6        3.23447   0.00962   0.00000   0.02875   0.02873   3.26320
    R7        2.04341   0.00044   0.00000   0.00123   0.00123   2.04464
    R8        3.23447   0.00962   0.00000   0.02876   0.02873   3.26320
    R9        2.04341   0.00044   0.00000   0.00123   0.00123   2.04464
    A1        1.95510   0.00323   0.00000   0.01167   0.01172   1.96682
    A2        2.17523  -0.00180   0.00000  -0.00698  -0.00700   2.16823
    A3        2.15285  -0.00143   0.00000  -0.00469  -0.00471   2.14814
    A4        1.95510   0.00323   0.00000   0.01167   0.01172   1.96682
    A5        2.17523  -0.00180   0.00000  -0.00698  -0.00700   2.16823
    A6        2.15285  -0.00143   0.00000  -0.00469  -0.00472   2.14814
    A7        1.95622  -0.00325   0.00000  -0.01422  -0.01423   1.94199
    A8        2.23086   0.00137   0.00000   0.00549   0.00549   2.23635
    A9        2.09610   0.00189   0.00000   0.00874   0.00874   2.10484
   A10        1.60214   0.00005   0.00000   0.00511   0.00502   1.60716
   A11        1.95622  -0.00325   0.00000  -0.01422  -0.01423   1.94199
   A12        2.23086   0.00137   0.00000   0.00549   0.00549   2.23635
   A13        2.09610   0.00189   0.00000   0.00874   0.00874   2.10484
    D1        0.00001   0.00000   0.00000  -0.00002  -0.00002  -0.00001
    D2       -3.14159   0.00000   0.00000  -0.00001  -0.00001   3.14159
    D3       -3.14159   0.00000   0.00000  -0.00001  -0.00001   3.14159
    D4        0.00000   0.00000   0.00000   0.00000   0.00000   0.00000
    D5       -0.00001   0.00000   0.00000   0.00002   0.00002   0.00001
    D6        3.14159   0.00000   0.00000   0.00001   0.00001  -3.14159
    D7        3.14159   0.00000   0.00000   0.00001   0.00001  -3.14159
    D8        0.00000   0.00000   0.00000   0.00000   0.00000   0.00000
    D9       -0.00001   0.00000   0.00000   0.00001   0.00001   0.00001
   D10        3.14159   0.00000   0.00000   0.00001   0.00001  -3.14159
   D11        3.14159   0.00000   0.00000   0.00000   0.00000  -3.14159
   D12        0.00000   0.00000   0.00000   0.00000   0.00000   0.00000
   D13        0.00000   0.00000   0.00000   0.00000   0.00000   0.00000
   D14        3.14159   0.00000   0.00000   0.00000   0.00000  -3.14159
   D15        0.00000   0.00000   0.00000  -0.00001  -0.00001   0.00000
   D16       -3.14159   0.00000   0.00000   0.00000   0.00000   3.14159
         Item               Value     Threshold  Converged?
 Maximum Force            0.009618     0.000450     NO 
 RMS     Force            0.003013     0.000300     NO 
 Maximum Displacement     0.031132     0.001800     NO 
 RMS     Displacement     0.011429     0.001200     NO 
 Predicted change in Energy=-5.061389D-04
 Lowest energy point so far.  Saving SCF results.
 GradGradGradGradGradGradGradGradGradGradGradGradGradGradGradGradGradGrad

 Leave Link  103 at Thu Mar 19 18:15:46 2026, MaxMem=   536870912 cpu:         0.0
 (Enter C:\G09W\l202.exe)
                          Input orientation:                          
 ---------------------------------------------------------------------
 Center     Atomic      Atomic             Coordinates (Angstroms)
 Number     Number       Type             X           Y           Z
 ---------------------------------------------------------------------
      1          6           0        0.707110   -0.706460    0.043199
      2          6           0       -0.721251   -0.693119    0.018458
      3          6           0       -1.237106    0.575071   -0.046344
      4         16           0        0.017790    1.760878   -0.077572
      5          6           0        1.248491    0.551856   -0.003302
      6          1           0        1.307913   -1.607759    0.093215
      7          1           0       -1.340149   -1.583027    0.047351
      8          1           0       -2.276910    0.872627   -0.077080
      9          1           0        2.294110    0.829934    0.002074
 ---------------------------------------------------------------------
                    Distance matrix (angstroms):
                    1          2          3          4          5
     1  C    0.000000
     2  C    1.428638   0.000000
     3  C    2.330305   1.370625   0.000000
     4  S    2.564665   2.564665   1.726811   0.000000
     5  C    1.370625   2.330304   2.486078   1.726811   0.000000
     6  H    1.084346   2.227030   3.355794   3.611274   2.162587
     7  H    2.227029   1.084346   2.162588   3.611274   3.355793
     8  H    3.378219   2.209246   1.081978   2.460617   3.540733
     9  H    2.209246   3.378219   3.540733   2.460617   1.081978
                    6          7          8          9
     6  H    0.000000
     7  H    2.648575   0.000000
     8  H    4.362600   2.631206   0.000000
     9  H    2.631205   4.362599   4.571905   0.000000
 Stoichiometry    C4H4S
 Framework group  C1[X(C4H4S)]
 Deg. of freedom    21
 Full point group                 C1      NOp   1
 RotChk:  IX=3 Diff= 2.38D-06
 Largest Abelian subgroup         C1      NOp   1
 Largest concise Abelian subgroup C1      NOp   1
                         Standard orientation:                         
 ---------------------------------------------------------------------
 Center     Atomic      Atomic             Coordinates (Angstroms)
 Number     Number       Type             X           Y           Z
 ---------------------------------------------------------------------
      1          6           0       -1.270401    0.714319   -0.000003
      2          6           0       -1.270401   -0.714319    0.000002
      3          6           0       -0.005858   -1.243039    0.000000
      4         16           0        1.192778    0.000000    0.000000
      5          6           0       -0.005859    1.243039    0.000002
      6          1           0       -2.166919    1.324287   -0.000004
      7          1           0       -2.166919   -1.324287    0.000003
      8          1           0        0.282253   -2.285953   -0.000001
      9          1           0        0.282252    2.285952    0.000003
 ---------------------------------------------------------------------
 Rotational constants (GHZ):      7.9716037      5.3945195      3.2173107
 Leave Link  202 at Thu Mar 19 18:15:47 2026, MaxMem=   536870912 cpu:         0.0
 (Enter C:\G09W\l301.exe)
 Standard basis: 6-31G(d) (6D, 7F)
 Ernie: Thresh=  0.10000D-02 Tol=  0.10000D-05 Strict=F.
 There are    87 symmetry adapted cartesian basis functions of A   symmetry.
 There are    87 symmetry adapted basis functions of A   symmetry.
    87 basis functions,   180 primitive gaussians,    87 cartesian basis functions
    22 alpha electrons       22 beta electrons
       nuclear repulsion energy       202.0838291337 Hartrees.
 IExCor=  402 DFT=T Ex+Corr=B3LYP ExCW=0 ScaHFX=  0.200000
 ScaDFX=  0.800000  0.720000  1.000000  0.810000 ScalE2=  1.000000  1.000000
 IRadAn=      0 IRanWt=     -1 IRanGd=            0 ICorTp=0 IEmpDi=  4
 NAtoms=    9 NActive=    9 NUniq=    9 SFac= 1.00D+00 NAtFMM=   60 NAOKFM=F Big=F
 Integral buffers will be    131072 words long.
 Raffenetti 2 integral format.
 Two-electron integral symmetry is turned on.
 Leave Link  301 at Thu Mar 19 18:15:47 2026, MaxMem=   536870912 cpu:         0.0
 (Enter C:\G09W\l302.exe)
 NPDir=0 NMtPBC=     1 NCelOv=     1 NCel=       1 NClECP=     1 NCelD=      1
         NCelK=      1 NCelE2=     1 NClLst=     1 CellRange=     0.0.
 One-electron integrals computed using PRISM.
 NBasis=    87 RedAO= T EigKep=  1.73D-03  NBF=    87
 NBsUse=    87 1.00D-06 EigRej= -1.00D+00 NBFU=    87
 Precomputing XC quadrature grid using
 IXCGrd= 4 IRadAn=           0 IRanWt=          -1 IRanGd=           0 AccXCQ= 0.00D+00.
 Generated NRdTot=       0 NPtTot=           0 NUsed=           0 NTot=          32
 NSgBfM=    87    87    87    87    87 MxSgAt=     9 MxSgA2=     9.
 Leave Link  302 at Thu Mar 19 18:15:47 2026, MaxMem=   536870912 cpu:         0.0
 (Enter C:\G09W\l303.exe)
 DipDrv:  MaxL=1.
 Leave Link  303 at Thu Mar 19 18:15:47 2026, MaxMem=   536870912 cpu:         0.0
 (Enter C:\G09W\l401.exe)
 Initial guess from the checkpoint file:  "thiophene_rdkit.chk"
 B after Tr=     0.000000    0.000000    0.000000
         Rot=    1.000000    0.000000    0.000000   -0.000001 Ang=   0.00 deg.
 Guess basis will be translated and rotated to current coordinates.
 JPrj=2 DoOrth=T DoCkMO=T.
 Generating alternative initial guess.
 ExpMin= 1.17D-01 ExpMax= 2.19D+04 ExpMxC= 3.30D+03 IAcc=1 IRadAn=         1 AccDes= 0.00D+00
 Harris functional with IExCor=  402 and IRadAn=       1 diagonalized for initial guess.
 HarFok:  IExCor=  402 AccDes= 0.00D+00 IRadAn=         1 IDoV= 1 UseB2=F ITyADJ=14
 ICtDFT=  3500011 ScaDFX=  1.000000  1.000000  1.000000  1.000000
 FoFCou: FMM=F IPFlag=           0 FMFlag=      100000 FMFlg1=           0
         NFxFlg=           0 DoJE=T BraDBF=F KetDBF=T FulRan=T
         wScrn=  0.000000 ICntrl=     500 IOpCl=  0 I1Cent=   200000004 NGrid=           0
         NMat0=    1 NMatS0=      1 NMatT0=    0 NMatD0=    1 NMtDS0=    0 NMtDT0=    0
 Petite list used in FoFCou.
 Harris En= -552.993477377443    
 Leave Link  401 at Thu Mar 19 18:15:48 2026, MaxMem=   536870912 cpu:         1.0
 (Enter C:\G09W\l502.exe)
 Closed shell SCF:
 Using DIIS extrapolation, IDIIS=  1040.
 Integral symmetry usage will be decided dynamically.
 Keep R1 ints in memory in canonical form, NReq=8277689.
 IVT=       42435 IEndB=       42435 NGot=   536870912 MDV=   529499772
 LenX=   529499772 LenY=   529491762
 Requested convergence on RMS density matrix=1.00D-08 within 128 cycles.
 Requested convergence on MAX density matrix=1.00D-06.
 Requested convergence on             energy=1.00D-06.
 No special actions if energy rises.
 FoFCou: FMM=F IPFlag=           0 FMFlag=           0 FMFlg1=           0
         NFxFlg=           0 DoJE=F BraDBF=F KetDBF=F FulRan=T
         wScrn=  0.000000 ICntrl=     600 IOpCl=  0 I1Cent=           0 NGrid=           0
         NMat0=    1 NMatS0=   3828 NMatT0=    0 NMatD0=    1 NMtDS0=    0 NMtDT0=    0
 Symmetry not used in FoFCou.
 Integral accuracy reduced to 1.0D-05 until final iterations.

 Cycle   1  Pass 0  IDiag  1:
 E= -553.002341705637    
 DIIS: error= 1.21D-03 at cycle   1 NSaved=   1.
 NSaved= 1 IEnMin= 1 EnMin= -553.002341705637     IErMin= 1 ErrMin= 1.21D-03
 ErrMax= 1.21D-03  0.00D+00 EMaxC= 1.00D-01 BMatC= 1.26D-04 BMatP= 1.26D-04
 IDIUse=3 WtCom= 9.88D-01 WtEn= 1.21D-02
 Coeff-Com:  0.100D+01
 Coeff-En:   0.100D+01
 Coeff:      0.100D+01
 Gap=     1.733 Goal=   None    Shift=    0.000
 GapD=    1.733 DampG=2.000 DampE=1.000 DampFc=2.0000 IDamp=-1.
 RMSDP=2.71D-04 MaxDP=2.99D-03              OVMax= 6.39D-03

 Cycle   2  Pass 0  IDiag  1:
 E= -553.002563532888     Delta-E=       -0.000221827251 Rises=F Damp=F
 DIIS: error= 3.30D-04 at cycle   2 NSaved=   2.
 NSaved= 2 IEnMin= 2 EnMin= -553.002563532888     IErMin= 2 ErrMin= 3.30D-04
 ErrMax= 3.30D-04  0.00D+00 EMaxC= 1.00D-01 BMatC= 1.15D-05 BMatP= 1.26D-04
 IDIUse=3 WtCom= 9.97D-01 WtEn= 3.30D-03
 Coeff-Com:  0.112D+00 0.888D+00
 Coeff-En:   0.000D+00 0.100D+01
 Coeff:      0.111D+00 0.889D+00
 Gap=     0.226 Goal=   None    Shift=    0.000
 RMSDP=7.75D-05 MaxDP=9.92D-04 DE=-2.22D-04 OVMax= 1.77D-03

 Cycle   3  Pass 0  IDiag  1:
 E= -553.002563340748     Delta-E=        0.000000192140 Rises=F Damp=F
 DIIS: error= 3.94D-04 at cycle   3 NSaved=   3.
 NSaved= 3 IEnMin= 2 EnMin= -553.002563532888     IErMin= 2 ErrMin= 3.30D-04
 ErrMax= 3.94D-04  0.00D+00 EMaxC= 1.00D-01 BMatC= 1.20D-05 BMatP= 1.15D-05
 IDIUse=3 WtCom= 9.96D-01 WtEn= 3.94D-03
 Coeff-Com: -0.300D-02 0.506D+00 0.497D+00
 Coeff-En:   0.000D+00 0.504D+00 0.496D+00
 Coeff:     -0.299D-02 0.506D+00 0.497D+00
 Gap=     0.225 Goal=   None    Shift=    0.000
 RMSDP=4.61D-05 MaxDP=7.37D-04 DE= 1.92D-07 OVMax= 1.80D-03

 Cycle   4  Pass 0  IDiag  1:
 E= -553.002574595122     Delta-E=       -0.000011254374 Rises=F Damp=F
 DIIS: error= 1.28D-04 at cycle   4 NSaved=   4.
 NSaved= 4 IEnMin= 4 EnMin= -553.002574595122     IErMin= 4 ErrMin= 1.28D-04
 ErrMax= 1.28D-04  0.00D+00 EMaxC= 1.00D-01 BMatC= 1.02D-06 BMatP= 1.15D-05
 IDIUse=3 WtCom= 9.99D-01 WtEn= 1.28D-03
 Coeff-Com: -0.101D-01 0.150D+00 0.267D+00 0.594D+00
 Coeff-En:   0.000D+00 0.000D+00 0.425D-01 0.958D+00
 Coeff:     -0.101D-01 0.150D+00 0.266D+00 0.594D+00
 Gap=     0.225 Goal=   None    Shift=    0.000
 RMSDP=1.68D-05 MaxDP=2.18D-04 DE=-1.13D-05 OVMax= 6.51D-04

 Cycle   5  Pass 0  IDiag  1:
 E= -553.002575635367     Delta-E=       -0.000001040245 Rises=F Damp=F
 DIIS: error= 3.55D-05 at cycle   5 NSaved=   5.
 NSaved= 5 IEnMin= 5 EnMin= -553.002575635367     IErMin= 5 ErrMin= 3.55D-05
 ErrMax= 3.55D-05  0.00D+00 EMaxC= 1.00D-01 BMatC= 9.85D-08 BMatP= 1.02D-06
 IDIUse=1 WtCom= 1.00D+00 WtEn= 0.00D+00
 Coeff-Com: -0.656D-02 0.655D-01 0.135D+00 0.354D+00 0.451D+00
 Coeff:     -0.656D-02 0.655D-01 0.135D+00 0.354D+00 0.451D+00
 Gap=     0.225 Goal=   None    Shift=    0.000
 RMSDP=5.16D-06 MaxDP=9.48D-05 DE=-1.04D-06 OVMax= 1.45D-04

 Initial convergence to 1.0D-05 achieved.  Increase integral accuracy.
 Cycle   6  Pass 1  IDiag  1:
 E= -553.002526373707     Delta-E=        0.000049261659 Rises=F Damp=F
 DIIS: error= 1.92D-05 at cycle   1 NSaved=   1.
 NSaved= 1 IEnMin= 1 EnMin= -553.002526373707     IErMin= 1 ErrMin= 1.92D-05
 ErrMax= 1.92D-05  0.00D+00 EMaxC= 1.00D-01 BMatC= 2.77D-08 BMatP= 2.77D-08
 IDIUse=1 WtCom= 1.00D+00 WtEn= 0.00D+00
 Coeff-Com:  0.100D+01
 Coeff:      0.100D+01
 Gap=     0.225 Goal=   None    Shift=    0.000
 RMSDP=5.16D-06 MaxDP=9.48D-05 DE= 4.93D-05 OVMax= 8.24D-05

 Cycle   7  Pass 1  IDiag  1:
 E= -553.002526395665     Delta-E=       -0.000000021958 Rises=F Damp=F
 DIIS: error= 1.01D-05 at cycle   2 NSaved=   2.
 NSaved= 2 IEnMin= 2 EnMin= -553.002526395665     IErMin= 2 ErrMin= 1.01D-05
 ErrMax= 1.01D-05  0.00D+00 EMaxC= 1.00D-01 BMatC= 1.05D-08 BMatP= 2.77D-08
 IDIUse=1 WtCom= 1.00D+00 WtEn= 0.00D+00
 Coeff-Com:  0.343D+00 0.657D+00
 Coeff:      0.343D+00 0.657D+00
 Gap=     0.225 Goal=   None    Shift=    0.000
 RMSDP=2.70D-06 MaxDP=8.00D-05 DE=-2.20D-08 OVMax= 9.08D-05

 Cycle   8  Pass 1  IDiag  1:
 E= -553.002526400509     Delta-E=       -0.000000004844 Rises=F Damp=F
 DIIS: error= 8.88D-06 at cycle   3 NSaved=   3.
 NSaved= 3 IEnMin= 3 EnMin= -553.002526400509     IErMin= 3 ErrMin= 8.88D-06
 ErrMax= 8.88D-06  0.00D+00 EMaxC= 1.00D-01 BMatC= 5.70D-09 BMatP= 1.05D-08
 IDIUse=1 WtCom= 1.00D+00 WtEn= 0.00D+00
 Coeff-Com:  0.154D-01 0.422D+00 0.563D+00
 Coeff:      0.154D-01 0.422D+00 0.563D+00
 Gap=     0.225 Goal=   None    Shift=    0.000
 RMSDP=1.36D-06 MaxDP=3.01D-05 DE=-4.84D-09 OVMax= 5.05D-05

 Cycle   9  Pass 1  IDiag  1:
 E= -553.002526407314     Delta-E=       -0.000000006805 Rises=F Damp=F
 DIIS: error= 2.66D-06 at cycle   4 NSaved=   4.
 NSaved= 4 IEnMin= 4 EnMin= -553.002526407314     IErMin= 4 ErrMin= 2.66D-06
 ErrMax= 2.66D-06  0.00D+00 EMaxC= 1.00D-01 BMatC= 4.18D-10 BMatP= 5.70D-09
 IDIUse=1 WtCom= 1.00D+00 WtEn= 0.00D+00
 Coeff-Com: -0.924D-02 0.201D+00 0.336D+00 0.472D+00
 Coeff:     -0.924D-02 0.201D+00 0.336D+00 0.472D+00
 Gap=     0.225 Goal=   None    Shift=    0.000
 RMSDP=2.51D-07 MaxDP=4.55D-06 DE=-6.80D-09 OVMax= 8.28D-06

 Cycle  10  Pass 1  IDiag  1:
 E= -553.002526407751     Delta-E=       -0.000000000437 Rises=F Damp=F
 DIIS: error= 4.14D-07 at cycle   5 NSaved=   5.
 NSaved= 5 IEnMin= 5 EnMin= -553.002526407751     IErMin= 5 ErrMin= 4.14D-07
 ErrMax= 4.14D-07  0.00D+00 EMaxC= 1.00D-01 BMatC= 1.75D-11 BMatP= 4.18D-10
 IDIUse=1 WtCom= 1.00D+00 WtEn= 0.00D+00
 Coeff-Com: -0.539D-02 0.610D-01 0.129D+00 0.220D+00 0.596D+00
 Coeff:     -0.539D-02 0.610D-01 0.129D+00 0.220D+00 0.596D+00
 Gap=     0.225 Goal=   None    Shift=    0.000
 RMSDP=6.48D-08 MaxDP=9.42D-07 DE=-4.37D-10 OVMax= 1.35D-06

 Cycle  11  Pass 1  IDiag  1:
 E= -553.002526407762     Delta-E=       -0.000000000011 Rises=F Damp=F
 DIIS: error= 1.22D-07 at cycle   6 NSaved=   6.
 NSaved= 6 IEnMin= 6 EnMin= -553.002526407762     IErMin= 6 ErrMin= 1.22D-07
 ErrMax= 1.22D-07  0.00D+00 EMaxC= 1.00D-01 BMatC= 1.38D-12 BMatP= 1.75D-11
 IDIUse=1 WtCom= 1.00D+00 WtEn= 0.00D+00
 Coeff-Com: -0.170D-02 0.110D-01 0.341D-01 0.613D-01 0.280D+00 0.615D+00
 Coeff:     -0.170D-02 0.110D-01 0.341D-01 0.613D-01 0.280D+00 0.615D+00
 Gap=     0.225 Goal=   None    Shift=    0.000
 RMSDP=1.86D-08 MaxDP=3.13D-07 DE=-1.14D-11 OVMax= 4.43D-07

 Cycle  12  Pass 1  IDiag  1:
 E= -553.002526407782     Delta-E=       -0.000000000020 Rises=F Damp=F
 DIIS: error= 2.33D-08 at cycle   7 NSaved=   7.
 NSaved= 7 IEnMin= 7 EnMin= -553.002526407782     IErMin= 7 ErrMin= 2.33D-08
 ErrMax= 2.33D-08  0.00D+00 EMaxC= 1.00D-01 BMatC= 2.02D-14 BMatP= 1.38D-12
 IDIUse=1 WtCom= 1.00D+00 WtEn= 0.00D+00
 Coeff-Com: -0.189D-03-0.195D-03 0.198D-02 0.472D-02 0.355D-01 0.155D+00
 Coeff-Com:  0.803D+00
 Coeff:     -0.189D-03-0.195D-03 0.198D-02 0.472D-02 0.355D-01 0.155D+00
 Coeff:      0.803D+00
 Gap=     0.225 Goal=   None    Shift=    0.000
 RMSDP=2.66D-09 MaxDP=4.56D-08 DE=-2.02D-11 OVMax= 7.99D-08

 SCF Done:  E(RB3LYP) =  -553.002526408     A.U. after   12 cycles
            NFock= 12  Conv=0.27D-08     -V/T= 2.0051
 KE= 5.501724467429D+02 PE=-1.708569747765D+03 EE= 4.033109454811D+02
 Leave Link  502 at Thu Mar 19 18:15:57 2026, MaxMem=   536870912 cpu:         9.0
 (Enter C:\G09W\l701.exe)
 Compute integral first derivatives.
 ... and contract with generalized density number  0.
 Leave Link  701 at Thu Mar 19 18:15:58 2026, MaxMem=   536870912 cpu:         1.0
 (Enter C:\G09W\l702.exe)
 L702 exits ... SP integral derivatives will be done elsewhere.
 Leave Link  702 at Thu Mar 19 18:15:58 2026, MaxMem=   536870912 cpu:         0.0
 (Enter C:\G09W\l703.exe)
 Compute integral first derivatives, UseDBF=F ICtDFT=           0.
 Integral derivatives from FoFJK, PRISM(SPDF).
 Calling FoFJK, ICntrl=      2127 FMM=F ISym2X=0 I1Cent= 0 IOpClX= 0 NMat=1 NMatS=1 NMatT=0.
 FoFJK:  IHMeth= 1 ICntrl=    2127 DoSepK=F KAlg= 0 I1Cent=   0 FoldK=F
 IRaf=         0 NMat=   1 IRICut=       1 DoRegI=T DoRafI=F ISym2E= 0.
 FoFCou: FMM=F IPFlag=           0 FMFlag=      100000 FMFlg1=         800
         NFxFlg=           0 DoJE=F BraDBF=F KetDBF=F FulRan=T
         wScrn=  0.000000 ICntrl=    2127 IOpCl=  0 I1Cent=           0 NGrid=           0
         NMat0=    1 NMatS0=      1 NMatT0=    0 NMatD0=    1 NMtDS0=    0 NMtDT0=    0
 Symmetry not used in FoFCou.
 Leave Link  703 at Thu Mar 19 18:15:59 2026, MaxMem=   536870912 cpu:         1.0
 (Enter C:\G09W\l716.exe)
 Dipole        =-2.40023968D-01 6.28168486D-08-4.68397464D-07
 ***** Axes restored to original set *****
 -------------------------------------------------------------------
 Center     Atomic                   Forces (Hartrees/Bohr)
 Number     Number              X              Y              Z
 -------------------------------------------------------------------
      1        6           0.000969338    0.001523697   -0.000051886
      2        6          -0.000938339    0.001541540   -0.000083289
      3        6          -0.000778826   -0.004970671    0.000206431
      4       16           0.000071081    0.007037046   -0.000310189
      5        6           0.000678289   -0.004984204    0.000232437
      6        1          -0.000287846   -0.000509820    0.000017643
      7        1           0.000277424   -0.000515090    0.000027485
      8        1           0.000450904    0.000434575   -0.000011646
      9        1          -0.000442027    0.000442927   -0.000026988
 -------------------------------------------------------------------
 Cartesian Forces:  Max     0.007037046 RMS     0.002003080
 Leave Link  716 at Thu Mar 19 18:15:59 2026, MaxMem=   536870912 cpu:         0.0
 (Enter C:\G09W\l103.exe)

 GradGradGradGradGradGradGradGradGradGradGradGradGradGradGradGradGradGrad
 Berny optimization.
 Using GEDIIS/GDIIS optimizer.
 FormGI is forming the generalized inverse of G from B-inverse, IUseBI=4.
 Internal  Forces:  Max     0.003462559 RMS     0.001056398
 Search for a local minimum.
 Step number   2 out of a maximum of   48
 All quantities printed in internal units (Hartrees-Bohrs-Radians)
 RMS Force = .10564D-02 SwitMx=.10000D-02 MixMth= 1
 Mixed Optimization -- RFO/linear search
 Update second derivatives using D2CorX and points    1    2
 DE= -5.86D-04 DEPred=-5.06D-04 R= 1.16D+00
 TightC=F SS=  1.41D+00  RLast= 5.59D-02 DXNew= 5.0454D-01 1.6783D-01
 Trust test= 1.16D+00 RLast= 5.59D-02 DXMaxT set to 3.00D-01
 ITU=  1  0
 Use linear search instead of GDIIS.
     Eigenvalues ---    0.01821   0.01919   0.02075   0.02124   0.02162
     Eigenvalues ---    0.02213   0.15551   0.16000   0.16000   0.16035
     Eigenvalues ---    0.22000   0.22245   0.28905   0.33267   0.35616
     Eigenvalues ---    0.35625   0.35835   0.35985   0.41424   0.46049
     Eigenvalues ---    0.48574
 RFO step:  Lambda=-1.64081924D-04 EMin= 1.82125938D-02
 Quartic linear search produced a step of  0.20855.
 Iteration  1 RMS(Cart)=  0.00410593 RMS(Int)=  0.00001644
 Iteration  2 RMS(Cart)=  0.00002155 RMS(Int)=  0.00000319
 Iteration  3 RMS(Cart)=  0.00000000 RMS(Int)=  0.00000319
 ITry= 1 IFail=0 DXMaxC= 2.02D-02 DCOld= 1.00D+10 DXMaxT= 3.00D-01 DXLimC= 3.00D+00 Rises=F
 Variable       Old X    -DE/DX   Delta X   Delta X   Delta X     New X
                                 (Linear)    (Quad)   (Total)
    R1        2.69973  -0.00046   0.00137  -0.00201  -0.00064   2.69909
    R2        2.59011  -0.00138  -0.00280  -0.00291  -0.00571   2.58439
    R3        2.04912   0.00027   0.00050   0.00080   0.00130   2.05041
    R4        2.59011  -0.00138  -0.00280  -0.00291  -0.00571   2.58439
    R5        2.04912   0.00027   0.00050   0.00080   0.00130   2.05041
    R6        3.26320   0.00346   0.00599   0.01126   0.01726   3.28046
    R7        2.04464  -0.00031   0.00026  -0.00111  -0.00085   2.04379
    R8        3.26320   0.00346   0.00599   0.01126   0.01726   3.28046
    R9        2.04464  -0.00031   0.00026  -0.00111  -0.00085   2.04379
    A1        1.96682   0.00010   0.00244  -0.00130   0.00114   1.96796
    A2        2.16823  -0.00058  -0.00146  -0.00335  -0.00481   2.16342
    A3        2.14814   0.00049  -0.00098   0.00464   0.00366   2.15180
    A4        1.96682   0.00010   0.00244  -0.00130   0.00114   1.96796
    A5        2.16823  -0.00058  -0.00146  -0.00335  -0.00480   2.16342
    A6        2.14814   0.00049  -0.00098   0.00464   0.00366   2.15180
    A7        1.94199   0.00123  -0.00297   0.00718   0.00421   1.94620
    A8        2.23635  -0.00006   0.00114   0.00065   0.00180   2.23815
    A9        2.10484  -0.00117   0.00182  -0.00783  -0.00601   2.09883
   A10        1.60716  -0.00267   0.00105  -0.01177  -0.01071   1.59645
   A11        1.94199   0.00123  -0.00297   0.00718   0.00421   1.94620
   A12        2.23635  -0.00006   0.00114   0.00065   0.00180   2.23815
   A13        2.10484  -0.00117   0.00182  -0.00783  -0.00601   2.09883
    D1       -0.00001   0.00000   0.00000   0.00002   0.00002   0.00001
    D2        3.14159   0.00000   0.00000   0.00001   0.00001  -3.14159
    D3        3.14159   0.00000   0.00000   0.00001   0.00000  -3.14159
    D4        0.00000   0.00000   0.00000   0.00000   0.00000   0.00000
    D5        0.00001   0.00000   0.00000  -0.00002  -0.00002  -0.00001
    D6       -3.14159   0.00000   0.00000  -0.00001  -0.00001   3.14159
    D7       -3.14159   0.00000   0.00000  -0.00001   0.00000   3.14159
    D8        0.00000   0.00000   0.00000   0.00000   0.00000   0.00000
    D9        0.00001   0.00000   0.00000  -0.00001  -0.00001   0.00000
   D10       -3.14159   0.00000   0.00000  -0.00001  -0.00001   3.14159
   D11       -3.14159   0.00000   0.00000   0.00000   0.00000  -3.14159
   D12        0.00000   0.00000   0.00000   0.00000   0.00000   0.00000
   D13        0.00000   0.00000   0.00000   0.00000   0.00000   0.00000
   D14       -3.14159   0.00000   0.00000   0.00000   0.00000   3.14159
   D15        0.00000   0.00000   0.00000   0.00001   0.00001   0.00001
   D16        3.14159   0.00000   0.00000   0.00000   0.00000  -3.14159
         Item               Value     Threshold  Converged?
 Maximum Force            0.003463     0.000450     NO 
 RMS     Force            0.001056     0.000300     NO 
 Maximum Displacement     0.020216     0.001800     NO 
 RMS     Displacement     0.004107     0.001200     NO 
 Predicted change in Energy=-9.874650D-05
 Lowest energy point so far.  Saving SCF results.
 GradGradGradGradGradGradGradGradGradGradGradGradGradGradGradGradGradGrad

 Leave Link  103 at Thu Mar 19 18:16:00 2026, MaxMem=   536870912 cpu:         0.0
 (Enter C:\G09W\l202.exe)
                          Input orientation:                          
 ---------------------------------------------------------------------
 Center     Atomic      Atomic             Coordinates (Angstroms)
 Number     Number       Type             X           Y           Z
 ---------------------------------------------------------------------
      1          6           0        0.706951   -0.705370    0.043142
      2          6           0       -0.721069   -0.692032    0.018417
      3          6           0       -1.237232    0.572771   -0.046246
      4         16           0        0.017898    1.771576   -0.078047
      5          6           0        1.248570    0.549554   -0.003196
      6          1           0        1.303788   -1.610119    0.093242
      7          1           0       -1.336073   -1.585463    0.047534
      8          1           0       -2.276407    0.870884   -0.076997
      9          1           0        2.293572    0.828201    0.002148
 ---------------------------------------------------------------------
                    Distance matrix (angstroms):
                    1          2          3          4          5
     1  C    0.000000
     2  C    1.428297   0.000000
     3  C    2.328408   1.367601   0.000000
     4  S    2.573857   2.573857   1.735942   0.000000
     5  C    1.367601   2.328408   2.486284   1.735942   0.000000
     6  H    1.085032   2.224529   3.352797   3.621977   2.162531
     7  H    2.224529   1.085032   2.162530   3.621977   3.352797
     8  H    3.376305   2.207009   1.081527   2.464768   3.540362
     9  H    2.207009   3.376305   3.540362   2.464768   1.081527
                    6          7          8          9
     6  H    0.000000
     7  H    2.640372   0.000000
     8  H    4.359146   2.633130   0.000000
     9  H    2.633131   4.359146   4.570864   0.000000
 Stoichiometry    C4H4S
 Framework group  C1[X(C4H4S)]
 Deg. of freedom    21
 Full point group                 C1      NOp   1
 RotChk:  IX=1 Diff= 1.76D-06
 Largest Abelian subgroup         C1      NOp   1
 Largest concise Abelian subgroup C1      NOp   1
                         Standard orientation:                         
 ---------------------------------------------------------------------
 Center     Atomic      Atomic             Coordinates (Angstroms)
 Number     Number       Type             X           Y           Z
 ---------------------------------------------------------------------
      1          6           0       -1.272687    0.714148    0.000003
      2          6           0       -1.272687   -0.714148   -0.000002
      3          6           0       -0.011537   -1.243142    0.000000
      4         16           0        1.200112    0.000000    0.000001
      5          6           0       -0.011537    1.243142   -0.000003
      6          1           0       -2.172695    1.320185    0.000005
      7          1           0       -2.172694   -1.320186   -0.000002
      8          1           0        0.277138   -2.285432    0.000000
      9          1           0        0.277137    2.285432   -0.000005
 ---------------------------------------------------------------------
 Rotational constants (GHZ):      7.9749226      5.3519134      3.2026428
 Leave Link  202 at Thu Mar 19 18:16:01 2026, MaxMem=   536870912 cpu:         0.0
 (Enter C:\G09W\l301.exe)
 Standard basis: 6-31G(d) (6D, 7F)
 Ernie: Thresh=  0.10000D-02 Tol=  0.10000D-05 Strict=F.
 There are    87 symmetry adapted cartesian basis functions of A   symmetry.
 There are    87 symmetry adapted basis functions of A   symmetry.
    87 basis functions,   180 primitive gaussians,    87 cartesian basis functions
    22 alpha electrons       22 beta electrons
       nuclear repulsion energy       201.6931637268 Hartrees.
 IExCor=  402 DFT=T Ex+Corr=B3LYP ExCW=0 ScaHFX=  0.200000
 ScaDFX=  0.800000  0.720000  1.000000  0.810000 ScalE2=  1.000000  1.000000
 IRadAn=      0 IRanWt=     -1 IRanGd=            0 ICorTp=0 IEmpDi=  4
 NAtoms=    9 NActive=    9 NUniq=    9 SFac= 1.00D+00 NAtFMM=   60 NAOKFM=F Big=F
 Integral buffers will be    131072 words long.
 Raffenetti 2 integral format.
 Two-electron integral symmetry is turned on.
 Leave Link  301 at Thu Mar 19 18:16:01 2026, MaxMem=   536870912 cpu:         0.0
 (Enter C:\G09W\l302.exe)
 NPDir=0 NMtPBC=     1 NCelOv=     1 NCel=       1 NClECP=     1 NCelD=      1
         NCelK=      1 NCelE2=     1 NClLst=     1 CellRange=     0.0.
 One-electron integrals computed using PRISM.
 NBasis=    87 RedAO= T EigKep=  1.72D-03  NBF=    87
 NBsUse=    87 1.00D-06 EigRej= -1.00D+00 NBFU=    87
 Precomputing XC quadrature grid using
 IXCGrd= 4 IRadAn=           0 IRanWt=          -1 IRanGd=           0 AccXCQ= 0.00D+00.
 Generated NRdTot=       0 NPtTot=           0 NUsed=           0 NTot=          32
 NSgBfM=    87    87    87    87    87 MxSgAt=     9 MxSgA2=     9.
 Leave Link  302 at Thu Mar 19 18:16:01 2026, MaxMem=   536870912 cpu:         0.0
 (Enter C:\G09W\l303.exe)
 DipDrv:  MaxL=1.
 Leave Link  303 at Thu Mar 19 18:16:02 2026, MaxMem=   536870912 cpu:         0.0
 (Enter C:\G09W\l401.exe)
 Initial guess from the checkpoint file:  "thiophene_rdkit.chk"
 B after Tr=     0.000000    0.000000    0.000000
         Rot=    1.000000    0.000000    0.000000    0.000000 Ang=   0.00 deg.
 Guess basis will be translated and rotated to current coordinates.
 JPrj=2 DoOrth=T DoCkMO=T.
 Generating alternative initial guess.
 ExpMin= 1.17D-01 ExpMax= 2.19D+04 ExpMxC= 3.30D+03 IAcc=1 IRadAn=         1 AccDes= 0.00D+00
 Harris functional with IExCor=  402 and IRadAn=       1 diagonalized for initial guess.
 HarFok:  IExCor=  402 AccDes= 0.00D+00 IRadAn=         1 IDoV= 1 UseB2=F ITyADJ=14
 ICtDFT=  3500011 ScaDFX=  1.000000  1.000000  1.000000  1.000000
 FoFCou: FMM=F IPFlag=           0 FMFlag=      100000 FMFlg1=           0
         NFxFlg=           0 DoJE=T BraDBF=F KetDBF=T FulRan=T
         wScrn=  0.000000 ICntrl=     500 IOpCl=  0 I1Cent=   200000004 NGrid=           0
         NMat0=    1 NMatS0=      1 NMatT0=    0 NMatD0=    1 NMtDS0=    0 NMtDT0=    0
 Petite list used in FoFCou.
 Harris En= -552.993990978305    
 Leave Link  401 at Thu Mar 19 18:16:03 2026, MaxMem=   536870912 cpu:         1.0
 (Enter C:\G09W\l502.exe)
 Closed shell SCF:
 Using DIIS extrapolation, IDIIS=  1040.
 Integral symmetry usage will be decided dynamically.
 Keep R1 ints in memory in canonical form, NReq=8277689.
 IVT=       42435 IEndB=       42435 NGot=   536870912 MDV=   529499772
 LenX=   529499772 LenY=   529491762
 Requested convergence on RMS density matrix=1.00D-08 within 128 cycles.
 Requested convergence on MAX density matrix=1.00D-06.
 Requested convergence on             energy=1.00D-06.
 No special actions if energy rises.
 FoFCou: FMM=F IPFlag=           0 FMFlag=           0 FMFlg1=           0
         NFxFlg=           0 DoJE=F BraDBF=F KetDBF=F FulRan=T
         wScrn=  0.000000 ICntrl=     600 IOpCl=  0 I1Cent=           0 NGrid=           0
         NMat0=    1 NMatS0=   3828 NMatT0=    0 NMatD0=    1 NMtDS0=    0 NMtDT0=    0
 Symmetry not used in FoFCou.
 Integral accuracy reduced to 1.0D-05 until final iterations.

 Cycle   1  Pass 0  IDiag  1:
 E= -553.002594128555    
 DIIS: error= 5.93D-04 at cycle   1 NSaved=   1.
 NSaved= 1 IEnMin= 1 EnMin= -553.002594128555     IErMin= 1 ErrMin= 5.93D-04
 ErrMax= 5.93D-04  0.00D+00 EMaxC= 1.00D-01 BMatC= 3.60D-05 BMatP= 3.60D-05
 IDIUse=3 WtCom= 9.94D-01 WtEn= 5.93D-03
 Coeff-Com:  0.100D+01
 Coeff-En:   0.100D+01
 Coeff:      0.100D+01
 Gap=     1.744 Goal=   None    Shift=    0.000
 RMSDP=1.49D-04 MaxDP=1.67D-03              OVMax= 3.85D-03

 Cycle   2  Pass 0  IDiag  1:
 E= -553.002657013981     Delta-E=       -0.000062885426 Rises=F Damp=F
 DIIS: error= 2.29D-04 at cycle   2 NSaved=   2.
 NSaved= 2 IEnMin= 2 EnMin= -553.002657013981     IErMin= 2 ErrMin= 2.29D-04
 ErrMax= 2.29D-04  0.00D+00 EMaxC= 1.00D-01 BMatC= 6.85D-06 BMatP= 3.60D-05
 IDIUse=3 WtCom= 9.98D-01 WtEn= 2.29D-03
 Coeff-Com:  0.197D+00 0.803D+00
 Coeff-En:   0.000D+00 0.100D+01
 Coeff:      0.197D+00 0.803D+00
 Gap=     0.225 Goal=   None    Shift=    0.000
 RMSDP=5.53D-05 MaxDP=8.42D-04 DE=-6.29D-05 OVMax= 1.43D-03

 Cycle   3  Pass 0  IDiag  1:
 E= -553.002657297820     Delta-E=       -0.000000283839 Rises=F Damp=F
 DIIS: error= 2.88D-04 at cycle   3 NSaved=   3.
 NSaved= 3 IEnMin= 3 EnMin= -553.002657297820     IErMin= 2 ErrMin= 2.29D-04
 ErrMax= 2.88D-04  0.00D+00 EMaxC= 1.00D-01 BMatC= 6.45D-06 BMatP= 6.85D-06
 IDIUse=3 WtCom= 9.97D-01 WtEn= 2.88D-03
 Coeff-Com: -0.129D-01 0.495D+00 0.518D+00
 Coeff-En:   0.000D+00 0.491D+00 0.509D+00
 Coeff:     -0.129D-01 0.495D+00 0.518D+00
 Gap=     0.225 Goal=   None    Shift=    0.000
 RMSDP=3.06D-05 MaxDP=5.23D-04 DE=-2.84D-07 OVMax= 1.15D-03

 Cycle   4  Pass 0  IDiag  1:
 E= -553.002663670500     Delta-E=       -0.000006372680 Rises=F Damp=F
 DIIS: error= 6.27D-05 at cycle   4 NSaved=   4.
 NSaved= 4 IEnMin= 4 EnMin= -553.002663670500     IErMin= 4 ErrMin= 6.27D-05
 ErrMax= 6.27D-05  0.00D+00 EMaxC= 1.00D-01 BMatC= 2.26D-07 BMatP= 6.45D-06
 IDIUse=1 WtCom= 1.00D+00 WtEn= 0.00D+00
 Coeff-Com: -0.110D-01 0.179D+00 0.249D+00 0.583D+00
 Coeff:     -0.110D-01 0.179D+00 0.249D+00 0.583D+00
 Gap=     0.225 Goal=   None    Shift=    0.000
 RMSDP=9.62D-06 MaxDP=1.19D-04 DE=-6.37D-06 OVMax= 3.61D-04

 Initial convergence to 1.0D-05 achieved.  Increase integral accuracy.
 Cycle   5  Pass 1  IDiag  1:
 E= -553.002624342883     Delta-E=        0.000039327618 Rises=F Damp=F
 DIIS: error= 2.71D-05 at cycle   1 NSaved=   1.
 NSaved= 1 IEnMin= 1 EnMin= -553.002624342883     IErMin= 1 ErrMin= 2.71D-05
 ErrMax= 2.71D-05  0.00D+00 EMaxC= 1.00D-01 BMatC= 5.82D-08 BMatP= 5.82D-08
 IDIUse=1 WtCom= 1.00D+00 WtEn= 0.00D+00
 Coeff-Com:  0.100D+01
 Coeff:      0.100D+01
 Gap=     0.225 Goal=   None    Shift=    0.000
 RMSDP=9.62D-06 MaxDP=1.19D-04 DE= 3.93D-05 OVMax= 2.97D-04

 Cycle   6  Pass 1  IDiag  1:
 E= -553.002624262342     Delta-E=        0.000000080541 Rises=F Damp=F
 DIIS: error= 4.20D-05 at cycle   2 NSaved=   2.
 NSaved= 2 IEnMin= 1 EnMin= -553.002624342883     IErMin= 1 ErrMin= 2.71D-05
 ErrMax= 4.20D-05  0.00D+00 EMaxC= 1.00D-01 BMatC= 1.32D-07 BMatP= 5.82D-08
 IDIUse=1 WtCom= 1.00D+00 WtEn= 0.00D+00
 Coeff-Com:  0.613D+00 0.387D+00
 Coeff:      0.613D+00 0.387D+00
 Gap=     0.225 Goal=   None    Shift=    0.000
 RMSDP=5.81D-06 MaxDP=1.14D-04 DE= 8.05D-08 OVMax= 2.08D-04

 Cycle   7  Pass 1  IDiag  1:
 E= -553.002624419185     Delta-E=       -0.000000156844 Rises=F Damp=F
 DIIS: error= 5.64D-06 at cycle   3 NSaved=   3.
 NSaved= 3 IEnMin= 3 EnMin= -553.002624419185     IErMin= 3 ErrMin= 5.64D-06
 ErrMax= 5.64D-06  0.00D+00 EMaxC= 1.00D-01 BMatC= 2.64D-09 BMatP= 5.82D-08
 IDIUse=1 WtCom= 1.00D+00 WtEn= 0.00D+00
 Coeff-Com:  0.997D-01 0.132D+00 0.768D+00
 Coeff:      0.997D-01 0.132D+00 0.768D+00
 Gap=     0.225 Goal=   None    Shift=    0.000
 RMSDP=9.99D-07 MaxDP=2.29D-05 DE=-1.57D-07 OVMax= 3.18D-05

 Cycle   8  Pass 1  IDiag  1:
 E= -553.002624420773     Delta-E=       -0.000000001588 Rises=F Damp=F
 DIIS: error= 3.70D-06 at cycle   4 NSaved=   4.
 NSaved= 4 IEnMin= 4 EnMin= -553.002624420773     IErMin= 4 ErrMin= 3.70D-06
 ErrMax= 3.70D-06  0.00D+00 EMaxC= 1.00D-01 BMatC= 1.33D-09 BMatP= 2.64D-09
 IDIUse=1 WtCom= 1.00D+00 WtEn= 0.00D+00
 Coeff-Com: -0.355D-02 0.400D-01 0.472D+00 0.492D+00
 Coeff:     -0.355D-02 0.400D-01 0.472D+00 0.492D+00
 Gap=     0.225 Goal=   None    Shift=    0.000
 RMSDP=4.32D-07 MaxDP=7.03D-06 DE=-1.59D-09 OVMax= 1.32D-05

 Cycle   9  Pass 1  IDiag  1:
 E= -553.002624422137     Delta-E=       -0.000000001364 Rises=F Damp=F
 DIIS: error= 5.44D-07 at cycle   5 NSaved=   5.
 NSaved= 5 IEnMin= 5 EnMin= -553.002624422137     IErMin= 5 ErrMin= 5.44D-07
 ErrMax= 5.44D-07  0.00D+00 EMaxC= 1.00D-01 BMatC= 2.52D-11 BMatP= 1.33D-09
 IDIUse=1 WtCom= 1.00D+00 WtEn= 0.00D+00
 Coeff-Com: -0.630D-02 0.131D-01 0.167D+00 0.211D+00 0.615D+00
 Coeff:     -0.630D-02 0.131D-01 0.167D+00 0.211D+00 0.615D+00
 Gap=     0.225 Goal=   None    Shift=    0.000
 RMSDP=8.52D-08 MaxDP=3.18D-06 DE=-1.36D-09 OVMax= 1.80D-06

 Cycle  10  Pass 1  IDiag  1:
 E= -553.002624422145     Delta-E=       -0.000000000007 Rises=F Damp=F
 DIIS: error= 1.54D-07 at cycle   6 NSaved=   6.
 NSaved= 6 IEnMin= 6 EnMin= -553.002624422145     IErMin= 6 ErrMin= 1.54D-07
 ErrMax= 1.54D-07  0.00D+00 EMaxC= 1.00D-01 BMatC= 1.85D-12 BMatP= 2.52D-11
 IDIUse=1 WtCom= 1.00D+00 WtEn= 0.00D+00
 Coeff-Com: -0.180D-02 0.324D-02 0.259D-01 0.432D-01 0.252D+00 0.678D+00
 Coeff:     -0.180D-02 0.324D-02 0.259D-01 0.432D-01 0.252D+00 0.678D+00
 Gap=     0.225 Goal=   None    Shift=    0.000
 RMSDP=2.35D-08 MaxDP=6.19D-07 DE=-7.39D-12 OVMax= 5.67D-07

 Cycle  11  Pass 1  IDiag  1:
 E= -553.002624422145     Delta-E=        0.000000000000 Rises=F Damp=F
 DIIS: error= 1.21D-08 at cycle   7 NSaved=   7.
 NSaved= 7 IEnMin= 7 EnMin= -553.002624422145     IErMin= 7 ErrMin= 1.21D-08
 ErrMax= 1.21D-08  0.00D+00 EMaxC= 1.00D-01 BMatC= 9.89D-15 BMatP= 1.85D-12
 IDIUse=1 WtCom= 1.00D+00 WtEn= 0.00D+00
 Coeff-Com: -0.142D-03 0.179D-03-0.767D-03 0.626D-03 0.252D-01 0.107D+00
 Coeff-Com:  0.868D+00
 Coeff:     -0.142D-03 0.179D-03-0.767D-03 0.626D-03 0.252D-01 0.107D+00
 Coeff:      0.868D+00
 Gap=     0.225 Goal=   None    Shift=    0.000
 RMSDP=2.31D-09 MaxDP=4.12D-08 DE=-4.55D-13 OVMax= 3.21D-08

 SCF Done:  E(RB3LYP) =  -553.002624422     A.U. after   11 cycles
            NFock= 11  Conv=0.23D-08     -V/T= 2.0052
 KE= 5.501609079303D+02 PE=-1.707785020548D+03 EE= 4.029283244686D+02
 Leave Link  502 at Thu Mar 19 18:16:09 2026, MaxMem=   536870912 cpu:         6.0
 (Enter C:\G09W\l701.exe)
 Compute integral first derivatives.
 ... and contract with generalized density number  0.
 Leave Link  701 at Thu Mar 19 18:16:09 2026, MaxMem=   536870912 cpu:         0.0
 (Enter C:\G09W\l702.exe)
 L702 exits ... SP integral derivatives will be done elsewhere.
 Leave Link  702 at Thu Mar 19 18:16:09 2026, MaxMem=   536870912 cpu:         0.0
 (Enter C:\G09W\l703.exe)
 Compute integral first derivatives, UseDBF=F ICtDFT=           0.
 Integral derivatives from FoFJK, PRISM(SPDF).
 Calling FoFJK, ICntrl=      2127 FMM=F ISym2X=0 I1Cent= 0 IOpClX= 0 NMat=1 NMatS=1 NMatT=0.
 FoFJK:  IHMeth= 1 ICntrl=    2127 DoSepK=F KAlg= 0 I1Cent=   0 FoldK=F
 IRaf=         0 NMat=   1 IRICut=       1 DoRegI=T DoRafI=F ISym2E= 0.
 FoFCou: FMM=F IPFlag=           0 FMFlag=      100000 FMFlg1=         800
         NFxFlg=           0 DoJE=F BraDBF=F KetDBF=F FulRan=T
         wScrn=  0.000000 ICntrl=    2127 IOpCl=  0 I1Cent=           0 NGrid=           0
         NMat0=    1 NMatS0=      1 NMatT0=    0 NMatD0=    1 NMtDS0=    0 NMtDT0=    0
 Symmetry not used in FoFCou.
 Leave Link  703 at Thu Mar 19 18:16:11 2026, MaxMem=   536870912 cpu:         1.0
 (Enter C:\G09W\l716.exe)
 Dipole        =-2.49167391D-01-4.30702123D-08 4.49582430D-07
 ***** Axes restored to original set *****
 -------------------------------------------------------------------
 Center     Atomic                   Forces (Hartrees/Bohr)
 Number     Number              X              Y              Z
 -------------------------------------------------------------------
      1        6           0.001082837   -0.000007625    0.000019546
      2        6          -0.001082843    0.000012423   -0.000019519
      3        6          -0.000115076   -0.000372967    0.000014644
      4       16          -0.000001652   -0.000165899    0.000007662
      5        6           0.000107522   -0.000375110    0.000017766
      6        1          -0.000128797    0.000123367   -0.000007566
      7        1           0.000131294    0.000120954   -0.000003151
      8        1           0.000014793    0.000332320   -0.000014421
      9        1          -0.000008079    0.000332537   -0.000014960
 -------------------------------------------------------------------
 Cartesian Forces:  Max     0.001082843 RMS     0.000331342
 Leave Link  716 at Thu Mar 19 18:16:11 2026, MaxMem=   536870912 cpu:         0.0
 (Enter C:\G09W\l103.exe)

 GradGradGradGradGradGradGradGradGradGradGradGradGradGradGradGradGradGrad
 Berny optimization.
 Using GEDIIS/GDIIS optimizer.
 FormGI is forming the generalized inverse of G from B-inverse, IUseBI=4.
 Internal  Forces:  Max     0.001056084 RMS     0.000218956
 Search for a local minimum.
 Step number   3 out of a maximum of   48
 All quantities printed in internal units (Hartrees-Bohrs-Radians)
 RMS Force = .21896D-03 SwitMx=.10000D-02 MixMth= 2
 Mixed Optimization -- En-DIIS/RFO-DIIS
 Update second derivatives using D2CorX and points    1    2    3
 DE= -9.80D-05 DEPred=-9.87D-05 R= 9.93D-01
 TightC=F SS=  1.41D+00  RLast= 3.12D-02 DXNew= 5.0454D-01 9.3462D-02
 Trust test= 9.93D-01 RLast= 3.12D-02 DXMaxT set to 3.00D-01
 ITU=  1  1  0
 Use linear search instead of GDIIS.
     Eigenvalues ---    0.01823   0.01920   0.02076   0.02126   0.02164
     Eigenvalues ---    0.02215   0.13947   0.16000   0.16000   0.16080
     Eigenvalues ---    0.22000   0.23621   0.28983   0.33255   0.35625
     Eigenvalues ---    0.35686   0.35835   0.35988   0.42923   0.46057
     Eigenvalues ---    0.48277
 RFO step:  Lambda=-6.24046959D-06 EMin= 1.82326823D-02
 Quartic linear search produced a step of -0.01011.
 Iteration  1 RMS(Cart)=  0.00104250 RMS(Int)=  0.00000135
 Iteration  2 RMS(Cart)=  0.00000135 RMS(Int)=  0.00000007
 Iteration  3 RMS(Cart)=  0.00000000 RMS(Int)=  0.00000007
 ITry= 1 IFail=0 DXMaxC= 3.66D-03 DCOld= 1.00D+10 DXMaxT= 3.00D-01 DXLimC= 3.00D+00 Rises=F
 Variable       Old X    -DE/DX   Delta X   Delta X   Delta X     New X
                                 (Linear)    (Quad)   (Total)
    R1        2.69909   0.00106   0.00001   0.00256   0.00257   2.70166
    R2        2.58439  -0.00008   0.00006  -0.00038  -0.00032   2.58407
    R3        2.05041  -0.00017  -0.00001  -0.00043  -0.00044   2.04997
    R4        2.58439  -0.00008   0.00006  -0.00038  -0.00032   2.58407
    R5        2.05041  -0.00017  -0.00001  -0.00043  -0.00044   2.04997
    R6        3.28046  -0.00006  -0.00017   0.00053   0.00036   3.28081
    R7        2.04379   0.00008   0.00001   0.00018   0.00019   2.04398
    R8        3.28046  -0.00006  -0.00017   0.00053   0.00036   3.28081
    R9        2.04379   0.00008   0.00001   0.00018   0.00019   2.04398
    A1        1.96796  -0.00006  -0.00001  -0.00001  -0.00002   1.96794
    A2        2.16342  -0.00001   0.00005  -0.00044  -0.00039   2.16303
    A3        2.15180   0.00007  -0.00004   0.00045   0.00041   2.15221
    A4        1.96796  -0.00006  -0.00001  -0.00001  -0.00002   1.96794
    A5        2.16342  -0.00001   0.00005  -0.00044  -0.00039   2.16303
    A6        2.15180   0.00007  -0.00004   0.00045   0.00041   2.15221
    A7        1.94620  -0.00011  -0.00004  -0.00032  -0.00036   1.94584
    A8        2.23815   0.00039  -0.00002   0.00239   0.00238   2.24052
    A9        2.09883  -0.00027   0.00006  -0.00208  -0.00202   2.09682
   A10        1.59645   0.00035   0.00011   0.00064   0.00075   1.59721
   A11        1.94620  -0.00011  -0.00004  -0.00032  -0.00036   1.94584
   A12        2.23815   0.00039  -0.00002   0.00239   0.00238   2.24052
   A13        2.09883  -0.00027   0.00006  -0.00208  -0.00202   2.09682
    D1        0.00001   0.00000   0.00000  -0.00002  -0.00002  -0.00001
    D2       -3.14159   0.00000   0.00000  -0.00001  -0.00001   3.14159
    D3       -3.14159   0.00000   0.00000   0.00000   0.00000   3.14159
    D4        0.00000   0.00000   0.00000   0.00000   0.00000   0.00000
    D5       -0.00001   0.00000   0.00000   0.00002   0.00002   0.00001
    D6        3.14159   0.00000   0.00000   0.00001   0.00001  -3.14159
    D7        3.14159   0.00000   0.00000   0.00001   0.00001  -3.14159
[...]
 Dipole        =-2.49360392D-01 9.19811960D-09-8.38787477D-07
 ***** Axes restored to original set *****
 -------------------------------------------------------------------
 Center     Atomic                   Forces (Hartrees/Bohr)
 Number     Number              X              Y              Z
 -------------------------------------------------------------------
      1        6           0.000193772    0.000029328    0.000001051
      2        6          -0.000193141    0.000033001   -0.000004155
      3        6           0.000117203   -0.000098229    0.000006407
      4       16          -0.000000518   -0.000052091    0.000001704
      5        6          -0.000119181   -0.000096004    0.000003038
      6        1          -0.000051865   -0.000013648   -0.000000379
      7        1           0.000051590   -0.000014607    0.000001524
      8        1           0.000029285    0.000105858   -0.000004176
      9        1          -0.000027145    0.000106391   -0.000005014
 -------------------------------------------------------------------
 Cartesian Forces:  Max     0.000193772 RMS     0.000076087
 Leave Link  716 at Thu Mar 19 18:16:21 2026, MaxMem=   536870912 cpu:         0.0
 (Enter C:\G09W\l103.exe)

 GradGradGradGradGradGradGradGradGradGradGradGradGradGradGradGradGradGrad
 Berny optimization.
 Using GEDIIS/GDIIS optimizer.
 FormGI is forming the generalized inverse of G from B-inverse, IUseBI=4.
 Internal  Forces:  Max     0.000135450 RMS     0.000052522
 Search for a local minimum.
 Step number   4 out of a maximum of   48
 All quantities printed in internal units (Hartrees-Bohrs-Radians)
 RMS Force = .52522D-04 SwitMx=.10000D-02 MixMth= 2
 Mixed Optimization -- En-DIIS/RFO-DIIS
 Swapping is turned off.
 Update second derivatives using D2CorX and points    1    2    3    4
 DE= -3.75D-06 DEPred=-3.13D-06 R= 1.20D+00
 TightC=F SS=  1.41D+00  RLast= 5.33D-03 DXNew= 5.0454D-01 1.5994D-02
 Trust test= 1.20D+00 RLast= 5.33D-03 DXMaxT set to 3.00D-01
 ITU=  1  1  1  0
     Eigenvalues ---    0.01823   0.01920   0.02076   0.02127   0.02164
     Eigenvalues ---    0.02215   0.11066   0.16000   0.16000   0.16075
     Eigenvalues ---    0.22000   0.23267   0.28525   0.33257   0.35625
     Eigenvalues ---    0.35705   0.35835   0.35981   0.45123   0.46060
     Eigenvalues ---    0.47973
 En-DIIS/RFO-DIIS IScMMF=        0 using points:     4    3
 RFO step:  Lambda=-2.59310667D-07.
 NNeg= 0 NP= 2 Switch=  2.50D-03 Rises=F DC=  3.75D-06 SmlDif=  1.00D-05
 RMS Error=  0.1329555938D-03 NUsed= 2 EDIIS=F
 DidBck=F Rises=F RFO-DIIS coefs:    1.24984   -0.24984
 Iteration  1 RMS(Cart)=  0.00049118 RMS(Int)=  0.00000026
 Iteration  2 RMS(Cart)=  0.00000026 RMS(Int)=  0.00000000
 ITry= 1 IFail=0 DXMaxC= 1.71D-03 DCOld= 1.00D+10 DXMaxT= 3.00D-01 DXLimC= 3.00D+00 Rises=F
 Variable       Old X    -DE/DX   Delta X   Delta X   Delta X     New X
                                 (Linear)    (Quad)   (Total)
    R1        2.70166   0.00010   0.00064  -0.00015   0.00049   2.70215
    R2        2.58407  -0.00003  -0.00008  -0.00006  -0.00014   2.58392
    R3        2.04997  -0.00002  -0.00011   0.00004  -0.00007   2.04990
    R4        2.58407  -0.00003  -0.00008  -0.00006  -0.00014   2.58392
    R5        2.04997  -0.00002  -0.00011   0.00004  -0.00007   2.04990
    R6        3.28081  -0.00009   0.00009  -0.00032  -0.00023   3.28058
    R7        2.04398   0.00000   0.00005  -0.00002   0.00002   2.04400
    R8        3.28081  -0.00009   0.00009  -0.00032  -0.00023   3.28058
    R9        2.04398   0.00000   0.00005  -0.00002   0.00002   2.04400
    A1        1.96794  -0.00005   0.00000  -0.00015  -0.00015   1.96779
    A2        2.16303  -0.00003  -0.00010  -0.00025  -0.00035   2.16269
    A3        2.15221   0.00007   0.00010   0.00040   0.00050   2.15271
    A4        1.96794  -0.00005   0.00000  -0.00015  -0.00015   1.96779
    A5        2.16303  -0.00003  -0.00010  -0.00025  -0.00035   2.16269
    A6        2.15221   0.00007   0.00010   0.00040   0.00050   2.15271
    A7        1.94584   0.00005  -0.00009   0.00024   0.00015   1.94600
    A8        2.24052   0.00009   0.00059   0.00030   0.00089   2.24142
    A9        2.09682  -0.00014  -0.00050  -0.00054  -0.00105   2.09577
   A10        1.59721   0.00000   0.00019  -0.00019  -0.00001   1.59720
   A11        1.94584   0.00005  -0.00009   0.00024   0.00015   1.94600
   A12        2.24052   0.00009   0.00059   0.00030   0.00089   2.24142
   A13        2.09682  -0.00014  -0.00050  -0.00054  -0.00105   2.09577
    D1       -0.00001   0.00000   0.00000   0.00002   0.00002   0.00001
    D2        3.14159   0.00000   0.00000   0.00002   0.00001  -3.14158
    D3        3.14159   0.00000   0.00000   0.00000   0.00000  -3.14159
    D4        0.00000   0.00000   0.00000   0.00000   0.00000   0.00000
    D5        0.00001   0.00000   0.00001  -0.00004  -0.00003  -0.00002
    D6       -3.14159   0.00000   0.00000  -0.00001  -0.00001   3.14159
    D7       -3.14159   0.00000   0.00000  -0.00002  -0.00001   3.14158
    D8        0.00000   0.00000   0.00000   0.00001   0.00001   0.00000
    D9        0.00000   0.00000   0.00000   0.00000   0.00000   0.00000
   D10       -3.14159   0.00000   0.00000  -0.00001  -0.00001   3.14159
   D11        3.14159   0.00000   0.00000   0.00001   0.00001  -3.14159
   D12        0.00000   0.00000   0.00000   0.00000   0.00000   0.00000
   D13        0.00000   0.00000   0.00000  -0.00002  -0.00001  -0.00001
   D14       -3.14159   0.00000   0.00000  -0.00001  -0.00001   3.14159
   D15       -0.00001   0.00000   0.00000   0.00003   0.00003   0.00002
   D16        3.14159   0.00000   0.00000   0.00001   0.00001  -3.14159
         Item               Value     Threshold  Converged?
 Maximum Force            0.000135     0.000450     YES
 RMS     Force            0.000053     0.000300     YES
 Maximum Displacement     0.001711     0.001800     YES
 RMS     Displacement     0.000491     0.001200     YES
 Predicted change in Energy=-3.358670D-07
 Optimization completed.
    -- Stationary point found.
                           ----------------------------
                           !   Optimized Parameters   !
                           ! (Angstroms and Degrees)  !
 --------------------------                            --------------------------
 ! Name  Definition              Value          Derivative Info.                !
 --------------------------------------------------------------------------------
 ! R1    R(1,2)                  1.4297         -DE/DX =    0.0001              !
 ! R2    R(1,5)                  1.3674         -DE/DX =    0.0                 !
 ! R3    R(1,6)                  1.0848         -DE/DX =    0.0                 !
 ! R4    R(2,3)                  1.3674         -DE/DX =    0.0                 !
 ! R5    R(2,7)                  1.0848         -DE/DX =    0.0                 !
 ! R6    R(3,4)                  1.7361         -DE/DX =   -0.0001              !
 ! R7    R(3,8)                  1.0816         -DE/DX =    0.0                 !
 ! R8    R(4,5)                  1.7361         -DE/DX =   -0.0001              !
 ! R9    R(5,9)                  1.0816         -DE/DX =    0.0                 !
 ! A1    A(2,1,5)              112.7548         -DE/DX =    0.0                 !
 ! A2    A(2,1,6)              123.9327         -DE/DX =    0.0                 !
 ! A3    A(5,1,6)              123.3125         -DE/DX =    0.0001              !
 ! A4    A(1,2,3)              112.7548         -DE/DX =    0.0                 !
 ! A5    A(1,2,7)              123.9327         -DE/DX =    0.0                 !
 ! A6    A(3,2,7)              123.3125         -DE/DX =    0.0001              !
 ! A7    A(2,3,4)              111.4887         -DE/DX =    0.0                 !
 ! A8    A(2,3,8)              128.3726         -DE/DX =    0.0001              !
 ! A9    A(4,3,8)              120.1388         -DE/DX =   -0.0001              !
 ! A10   A(3,4,5)               91.5131         -DE/DX =    0.0                 !
 ! A11   A(1,5,4)              111.4887         -DE/DX =    0.0                 !
 ! A12   A(1,5,9)              128.3726         -DE/DX =    0.0001              !
 ! A13   A(4,5,9)              120.1388         -DE/DX =   -0.0001              !
 ! D1    D(5,1,2,3)             -0.0005         -DE/DX =    0.0                 !
 ! D2    D(5,1,2,7)           -180.0003         -DE/DX =    0.0                 !
 ! D3    D(6,1,2,3)           -180.0001         -DE/DX =    0.0                 !
 ! D4    D(6,1,2,7)              0.0001         -DE/DX =    0.0                 !
 ! D5    D(2,1,5,4)              0.0006         -DE/DX =    0.0                 !
 ! D6    D(2,1,5,9)            180.0003         -DE/DX =    0.0                 !
 ! D7    D(6,1,5,4)            180.0003         -DE/DX =    0.0                 !
 ! D8    D(6,1,5,9)             -0.0001         -DE/DX =    0.0                 !
 ! D9    D(1,2,3,4)              0.0001         -DE/DX =    0.0                 !
 ! D10   D(1,2,3,8)            180.0001         -DE/DX =    0.0                 !
 ! D11   D(7,2,3,4)           -180.0001         -DE/DX =    0.0                 !
 ! D12   D(7,2,3,8)              0.0            -DE/DX =    0.0                 !
 ! D13   D(2,3,4,5)              0.0002         -DE/DX =    0.0                 !
 ! D14   D(8,3,4,5)            180.0002         -DE/DX =    0.0                 !
 ! D15   D(3,4,5,1)             -0.0005         -DE/DX =    0.0                 !
 ! D16   D(3,4,5,9)           -180.0002         -DE/DX =    0.0                 !
 --------------------------------------------------------------------------------
 Lowest energy point so far.  Saving SCF results.
 GradGradGradGradGradGradGradGradGradGradGradGradGradGradGradGradGradGrad

 Largest change from initial coordinates is atom    9       0.022 Angstoms.
 Leave Link  103 at Thu Mar 19 18:16:21 2026, MaxMem=   536870912 cpu:         0.0
 (Enter C:\G09W\l202.exe)
                          Input orientation:                          
 ---------------------------------------------------------------------
 Center     Atomic      Atomic             Coordinates (Angstroms)
 Number     Number       Type             X           Y           Z
 ---------------------------------------------------------------------
      1          6           0        0.707627   -0.705806    0.043179
      2          6           0       -0.721754   -0.692456    0.018421
      3          6           0       -1.237830    0.572197   -0.046230
      4         16           0        0.017888    1.770662   -0.078000
      5          6           0        1.249156    0.548969   -0.003164
      6          1           0        1.303981   -1.610593    0.093275
      7          1           0       -1.336275   -1.585934    0.047545
      8          1           0       -2.276380    0.872822   -0.077081
      9          1           0        2.293585    0.830139    0.002054
 ---------------------------------------------------------------------
                    Distance matrix (angstroms):
                    1          2          3          4          5
     1  C    0.000000
     2  C    1.429657   0.000000
     3  C    2.329397   1.367430   0.000000
     4  S    2.573581   2.573581   1.736132   0.000000
     5  C    1.367430   2.329397   2.487467   1.736132   0.000000
     6  H    1.084798   2.225349   3.353333   3.621638   2.162410
     7  H    2.225349   1.084798   2.162410   3.621638   3.353333
     8  H    3.377992   2.208185   1.081626   2.463694   3.541151
     9  H    2.208185   3.377992   3.541151   2.463694   1.081626
                    6          7          8          9
     6  H    0.000000
     7  H    2.640768   0.000000
     8  H    4.360661   2.635301   0.000000
     9  H    2.635301   4.360661   4.570850   0.000000
 Stoichiometry    C4H4S
 Framework group  C1[X(C4H4S)]
 Deg. of freedom    21
 Full point group                 C1      NOp   1
 RotChk:  IX=0 Diff= 1.86D-08
 Largest Abelian subgroup         C1      NOp   1
 Largest concise Abelian subgroup C1      NOp   1
                         Standard orientation:                         
 ---------------------------------------------------------------------
 Center     Atomic      Atomic             Coordinates (Angstroms)
 Number     Number       Type             X           Y           Z
 ---------------------------------------------------------------------
      1          6           0       -1.272576    0.714829   -0.000003
      2          6           0       -1.272576   -0.714829    0.000001
      3          6           0       -0.011575   -1.243734    0.000001
      4         16           0        1.199739    0.000000   -0.000001
      5          6           0       -0.011575    1.243734    0.000004
      6          1           0       -2.172626    1.320384   -0.000006
      7          1           0       -2.172626   -1.320384    0.000001
      8          1           0        0.279619   -2.285425    0.000002
      9          1           0        0.279619    2.285425    0.000007
 ---------------------------------------------------------------------
 Rotational constants (GHZ):      7.9674247      5.3537698      3.2020970
 Leave Link  202 at Thu Mar 19 18:16:21 2026, MaxMem=   536870912 cpu:         0.0
 (Enter C:\G09W\l601.exe)
 Copying SCF densities to generalized density rwf, IOpCl= 0 IROHF=0.

 **********************************************************************

            Population analysis using the SCF density.

 **********************************************************************

 Orbital symmetries:
       Occupied  (A) (A) (A) (A) (A) (A) (A) (A) (A) (A) (A) (A)
                 (A) (A) (A) (A) (A) (A) (A) (A) (A) (A)
       Virtual   (A) (A) (A) (A) (A) (A) (A) (A) (A) (A) (A) (A)
                 (A) (A) (A) (A) (A) (A) (A) (A) (A) (A) (A) (A)
                 (A) (A) (A) (A) (A) (A) (A) (A) (A) (A) (A) (A)
                 (A) (A) (A) (A) (A) (A) (A) (A) (A) (A) (A) (A)
                 (A) (A) (A) (A) (A) (A) (A) (A) (A) (A) (A) (A)
                 (A) (A) (A) (A) (A)
 The electronic state is 1-A.
 Alpha  occ. eigenvalues --  -88.90519 -10.21159 -10.21159 -10.19128 -10.19085
 Alpha  occ. eigenvalues --   -7.96651  -5.93049  -5.92680  -5.92367  -0.87296
 Alpha  occ. eigenvalues --   -0.72944  -0.72002  -0.56186  -0.54950  -0.51137
 Alpha  occ. eigenvalues --   -0.41181  -0.38993  -0.38419  -0.37317  -0.34068
 Alpha  occ. eigenvalues --   -0.24819  -0.23279
 Alpha virt. eigenvalues --   -0.00763   0.03549   0.07150   0.10177   0.10638
 Alpha virt. eigenvalues --    0.15301   0.17507   0.17790   0.24799   0.29939
 Alpha virt. eigenvalues --    0.30799   0.37173   0.39298   0.41850   0.44970
 Alpha virt. eigenvalues --    0.47846   0.53400   0.55038   0.57729   0.59294
 Alpha virt. eigenvalues --    0.61695   0.64588   0.65332   0.79227   0.79287
 Alpha virt. eigenvalues --    0.80333   0.80795   0.83400   0.85143   0.85673
 Alpha virt. eigenvalues --    0.91293   0.92298   0.98820   1.00934   1.05498
 Alpha virt. eigenvalues --    1.08599   1.11772   1.16195   1.32010   1.36387
 Alpha virt. eigenvalues --    1.42543   1.46730   1.50139   1.72973   1.81567
 Alpha virt. eigenvalues --    1.85093   1.88213   1.95021   2.01535   2.17983
 Alpha virt. eigenvalues --    2.22073   2.24888   2.25472   2.26348   2.46138
 Alpha virt. eigenvalues --    2.47457   2.60116   2.64396   2.87810   2.99033
 Alpha virt. eigenvalues --    3.94038   4.10441   4.11058   4.30946   4.43633
          Condensed to atoms (all electrons):
               1          2          3          4          5          6
     1  C    4.803554   0.528732  -0.047443  -0.083980   0.592528   0.362505
     2  C    0.528732   4.803554   0.592528  -0.083980  -0.047443  -0.041933
     3  C   -0.047443   0.592528   5.223073   0.323344  -0.064003   0.006324
     4  S   -0.083980  -0.083980   0.323344  15.329679   0.323344   0.007207
     5  C    0.592528  -0.047443  -0.064003   0.323344   5.223073  -0.050114
     6  H    0.362505  -0.041933   0.006324   0.007207  -0.050114   0.581646
     7  H   -0.041933   0.362505  -0.050114   0.007207   0.006324  -0.002617
     8  H    0.004630  -0.022884   0.359382  -0.038507   0.002711  -0.000121
     9  H   -0.022884   0.004630   0.002711  -0.038507   0.359382  -0.003669
               7          8          9
     1  C   -0.041933   0.004630  -0.022884
     2  C    0.362505  -0.022884   0.004630
     3  C   -0.050114   0.359382   0.002711
     4  S    0.007207  -0.038507  -0.038507
     5  C    0.006324   0.002711   0.359382
     6  H   -0.002617  -0.000121  -0.003669
     7  H    0.581646  -0.003669  -0.000121
     8  H   -0.003669   0.524881  -0.000068
     9  H   -0.000121  -0.000068   0.524881
 Mulliken charges:
               1
     1  C   -0.095708
     2  C   -0.095708
     3  C   -0.345804
     4  S    0.254193
     5  C   -0.345804
     6  H    0.140771
     7  H    0.140771
     8  H    0.173645
     9  H    0.173645
 Sum of Mulliken charges =   0.00000
 Mulliken charges with hydrogens summed into heavy atoms:
               1
     1  C    0.045063
     2  C    0.045063
     3  C   -0.172159
     4  S    0.254193
     5  C   -0.172159
 Electronic spatial extent (au):  <R**2>=            401.7711
 Charge=              0.0000 electrons
 Dipole moment (field-independent basis, Debye):
    X=             -0.6338    Y=              0.0000    Z=              0.0000  Tot=              0.6338
 Quadrupole moment (field-independent basis, Debye-Ang):
   XX=            -34.3725   YY=            -30.9635   ZZ=            -39.4604
   XY=              0.0000   XZ=              0.0000   YZ=              0.0000
 Traceless Quadrupole moment (field-independent basis, Debye-Ang):
   XX=              0.5597   YY=              3.9686   ZZ=             -4.5283
   XY=              0.0000   XZ=              0.0000   YZ=              0.0000
 Octapole moment (field-independent basis, Debye-Ang**2):
  XXX=             -5.7868  YYY=              0.0000  ZZZ=              0.0000  XYY=              1.9545
  XXY=              0.0000  XXZ=              0.0000  XZZ=              1.4766  YZZ=              0.0000
  YYZ=              0.0000  XYZ=              0.0000
 Hexadecapole moment (field-independent basis, Debye-Ang**3):
 XXXX=           -275.0512 YYYY=           -193.1102 ZZZZ=            -44.8299 XXXY=              0.0000
 XXXZ=              0.0000 YYYX=              0.0000 YYYZ=              0.0000 ZZZX=              0.0000
 ZZZY=              0.0000 XXYY=            -76.5036 XXZZ=            -59.7118 YYZZ=            -48.8803
 XXYZ=              0.0000 YYXZ=              0.0000 ZZXY=              0.0000
 N-N= 2.016708541046D+02 E-N=-1.707739451305D+03  KE= 5.501588155481D+02
 No NMR shielding tensors so no spin-rotation constants.
 Leave Link  601 at Thu Mar 19 18:16:22 2026, MaxMem=   536870912 cpu:         1.0
 (Enter C:\G09W\l9999.exe)
 1|1|UNPC-DESKTOP-GS7R1K3|FOpt|RB3LYP|6-31G(d)|C4H4S1|1172|19-Mar-2026|
 0||#p opt B3LYP/6-31G(d)||thiophene||0,1|C,0.7076267886,-0.7058064097,
 0.0431788425|C,-0.7217535864,-0.6924563714,0.0184209821|C,-1.237829654
 ,0.5721974724,-0.0462299001|S,0.0178883187,1.7706623728,-0.0779997344|
 C,1.2491561652,0.5489692169,-0.0031641999|H,1.3039811136,-1.610593348,
 0.0932749091|H,-1.3362754367,-1.5859339665,0.0475449509|H,-2.276380412
 2,0.8728220791,-0.07708132|H,2.2935847124,0.8301389543,0.0020544701||V
 ersion=EM64W-G09RevD.01|State=1-A|HF=-553.0026282|RMSD=2.728e-009|RMSF
 =7.609e-005|Dipole=-0.0025169,-0.2491061,0.0109745|Quadrupole=2.948499
 ,0.4089427,-3.3574417,-0.0208415,0.1076736,-0.167323|PG=C01 [X(C4H4S1)
 ]||@


 PATIENCE IS THE ABILITY TO IDLE YOUR MOTOR WHEN
 YOU FEEL LIKE STRIPPING YOUR GEARS.
 Job cpu time:       0 days  0 hours  0 minutes 53.0 seconds.
 File lengths (MBytes):  RWF=      6 Int=      0 D2E=      0 Chk=      2 Scr=      1
 Normal termination of Gaussian 09 at Thu Mar 19 18:16:22 2026.
