 Entering Gaussian System, Link 0=C:\G09W\g09.exe
 Input=chloromethane_rdkit.com
 Output=C:\workspace\delta_chem\data\raw\chloromethane\chloromethane_rdkit.out
 Initial command:
 C:\G09W\l1.exe ".\Gau-2092.inp" "C:\workspace\delta_chem\data\raw\chloromethane\chloromethane_rdkit.out" /scrdir=".\"
 Entering Link 1 = C:\G09W\l1.exe PID=     20636.
  
 Copyright (c) 1988,1990,1992,1993,1995,1998,2003,2009,2013,
            Gaussian, Inc.  All Rights Reserved.
  
 This is part of the Gaussian(R) 09 program.  It is based on
 the Gaussian(R) 03 system (copyright 2003, Gaussian, Inc.),
 the Gaussian(R) 98 system (copyright 1998, Gaussian, Inc.),
 the Gaussian(R) 94 system (copyright 1995, Gaussian, Inc.),
 the Gaussian 92(TM) system (copyright 1992, Gaussian, Inc.),
 the Gaussian 90(TM) system (copyright 1990, Gaussian, Inc.),
 the Gaussian 88(TM) system (copyright 1988, Gaussian, Inc.),
 the Gaussian 86(TM) system (copyright 1986, Carnegie Mellon
 University), and the Gaussian 82(TM) system (copyright 1983,
 Carnegie Mellon University). Gaussian is a federally registered
 trademark of Gaussian, Inc.
  
 This software contains proprietary and confidential information,
 including trade secrets, belonging to Gaussian, Inc.
  
 This software is provided under written license and may be
 used, copied, transmitted, or stored only in accord with that
 written license.
  
 The following legend is applicable only to US Government
 contracts under FAR:
  
                    RESTRICTED RIGHTS LEGEND
  
 Use, reproduction and disclosure by the US Government is
 subject to restrictions as set forth in subparagraphs (a)
 and (c) of the Commercial Computer Software - Restricted
 Rights clause in FAR 52.227-19.
  
 Gaussian, Inc.
 340 Quinnipiac St., Bldg. 40, Wallingford CT 06492
  
  
 ---------------------------------------------------------------
 Warning -- This program may not be used in any manner that
 competes with the business of Gaussian, Inc. or will provide
 assistance to any competitor of Gaussian, Inc.  The licensee
 of this program is prohibited from giving any competitor of
 Gaussian, Inc. access to this program.  By using this program,
 the user acknowledges that Gaussian, Inc. is engaged in the
 business of creating and licensing software in the field of
 computational chemistry and represents and warrants to the
 licensee that it is not a competitor of Gaussian, Inc. and that
 it will not use this program in any manner prohibited above.
 ---------------------------------------------------------------
  

 Cite this work as:
 Gaussian 09, Revision D.01,
 M. J. Frisch, G. W. Trucks, H. B. Schlegel, G. E. Scuseria, 
 M. A. Robb, J. R. Cheeseman, G. Scalmani, V. Barone, B. Mennucci, 
 G. A. Petersson, H. Nakatsuji, M. Caricato, X. Li, H. P. Hratchian, 
 A. F. Izmaylov, J. Bloino, G. Zheng, J. L. Sonnenberg, M. Hada, 
 M. Ehara, K. Toyota, R. Fukuda, J. Hasegawa, M. Ishida, T. Nakajima, 
 Y. Honda, O. Kitao, H. Nakai, T. Vreven, J. A. Montgomery, Jr., 
 J. E. Peralta, F. Ogliaro, M. Bearpark, J. J. Heyd, E. Brothers, 
 K. N. Kudin, V. N. Staroverov, T. Keith, R. Kobayashi, J. Normand, 
 K. Raghavachari, A. Rendell, J. C. Burant, S. S. Iyengar, J. Tomasi, 
 M. Cossi, N. Rega, J. M. Millam, M. Klene, J. E. Knox, J. B. Cross, 
 V. Bakken, C. Adamo, J. Jaramillo, R. Gomperts, R. E. Stratmann, 
 O. Yazyev, A. J. Austin, R. Cammi, C. Pomelli, J. W. Ochterski, 
 R. L. Martin, K. Morokuma, V. G. Zakrzewski, G. A. Voth, 
 P. Salvador, J. J. Dannenberg, S. Dapprich, A. D. Daniels, 
 O. Farkas, J. B. Foresman, J. V. Ortiz, J. Cioslowski, 
 and D. J. Fox, Gaussian, Inc., Wallingford CT, 2013.
 
 ******************************************
 Gaussian 09:  EM64W-G09RevD.01 13-Apr-2013
                19-Mar-2026 
 ******************************************
 %NProcShared=4
 Will use up to    4 processors via shared memory.
 %Mem=4GB
 %Chk=chloromethane_rdkit.chk
 ---------------------
 #p opt B3LYP/6-31G(d)
 ---------------------
 1/14=-1,18=20,19=15,26=3,38=1/1,3;
 2/9=110,12=2,17=6,18=5,40=1/2;
 3/5=1,6=6,7=1,11=2,16=1,25=1,30=1,71=1,74=-5/1,2,3;
 4//1;
 5/5=2,38=5/2;
 6/7=2,8=2,9=2,10=2,28=1/1;
 7//1,2,3,16;
 1/14=-1,18=20,19=15,26=3/3(2);
 2/9=110/2;
 99//99;
 2/9=110/2;
 3/5=1,6=6,7=1,11=2,16=1,25=1,30=1,71=1,74=-5/1,2,3;
 4/5=5,16=3,69=1/1;
 5/5=2,38=5/2;
 7//1,2,3,16;
 1/14=-1,18=20,19=15,26=3/3(-5);
 2/9=110/2;
 6/7=2,8=2,9=2,10=2,19=2,28=1/1;
 99/9=1/99;
 Leave Link    1 at Thu Mar 19 18:45:40 2026, MaxMem=   536870912 cpu:         0.0
 (Enter C:\G09W\l101.exe)
 -------------
 chloromethane
 -------------
 Symbolic Z-matrix:
 Charge =  0 Multiplicity = 1
 C                    -0.13897  -0.00683   0.00327 
 Cl                    1.62538   0.07993  -0.03824 
 H                    -0.48382  -0.65305  -0.8069 
 H                    -0.4537   -0.41763   0.96509 
 H                    -0.5489    0.99759  -0.12321 
 
 NAtoms=      5 NQM=        5 NQMF=       0 NMMI=      0 NMMIF=      0
                NMic=       0 NMicF=      0.
                    Isotopes and Nuclear Properties:
 (Nuclear quadrupole moments (NQMom) in fm**2, nuclear magnetic moments (NMagM)
  in nuclear magnetons)

  Atom         1           2           3           4           5
 IAtWgt=          12          35           1           1           1
 AtmWgt=  12.0000000  34.9688527   1.0078250   1.0078250   1.0078250
 NucSpn=           0           3           1           1           1
 AtZEff=   0.0000000   0.0000000   0.0000000   0.0000000   0.0000000
 NQMom=    0.0000000  -8.1650000   0.0000000   0.0000000   0.0000000
 NMagM=    0.0000000   0.8218740   2.7928460   2.7928460   2.7928460
 AtZNuc=   6.0000000  17.0000000   1.0000000   1.0000000   1.0000000
 Leave Link  101 at Thu Mar 19 18:45:40 2026, MaxMem=   536870912 cpu:         0.0
 (Enter C:\G09W\l103.exe)

 GradGradGradGradGradGradGradGradGradGradGradGradGradGradGradGradGradGrad
 Berny optimization.
 Initialization pass.
                           ----------------------------
                           !    Initial Parameters    !
                           ! (Angstroms and Degrees)  !
 --------------------------                            --------------------------
 ! Name  Definition              Value          Derivative Info.                !
 --------------------------------------------------------------------------------
 ! R1    R(1,2)                  1.767          estimate D2E/DX2                !
 ! R2    R(1,3)                  1.0922         estimate D2E/DX2                !
 ! R3    R(1,4)                  1.0922         estimate D2E/DX2                !
 ! R4    R(1,5)                  1.0922         estimate D2E/DX2                !
 ! A1    A(2,1,3)              109.0804         estimate D2E/DX2                !
 ! A2    A(2,1,4)              109.0804         estimate D2E/DX2                !
 ! A3    A(2,1,5)              109.0804         estimate D2E/DX2                !
 ! A4    A(3,1,4)              109.8592         estimate D2E/DX2                !
 ! A5    A(3,1,5)              109.8592         estimate D2E/DX2                !
 ! A6    A(4,1,5)              109.8592         estimate D2E/DX2                !
 ! D1    D(2,1,4,3)           -119.5184         estimate D2E/DX2                !
 ! D2    D(2,1,5,3)            119.5184         estimate D2E/DX2                !
 ! D3    D(2,1,5,4)           -119.5185         estimate D2E/DX2                !
 ! D4    D(3,1,5,4)            120.9631         estimate D2E/DX2                !
 --------------------------------------------------------------------------------
 Trust Radius=3.00D-01 FncErr=1.00D-07 GrdErr=1.00D-06
 Number of steps in this run=     24 maximum allowed number of steps=    100.
 GradGradGradGradGradGradGradGradGradGradGradGradGradGradGradGradGradGrad

 Leave Link  103 at Thu Mar 19 18:45:41 2026, MaxMem=   536870912 cpu:         0.0
 (Enter C:\G09W\l202.exe)
                          Input orientation:                          
 ---------------------------------------------------------------------
 Center     Atomic      Atomic             Coordinates (Angstroms)
 Number     Number       Type             X           Y           Z
 ---------------------------------------------------------------------
      1          6           0       -0.138966   -0.006834    0.003270
      2         17           0        1.625380    0.079926   -0.038243
      3          1           0       -0.483815   -0.653054   -0.806903
      4          1           0       -0.453700   -0.417626    0.965088
      5          1           0       -0.548898    0.997587   -0.123212
 ---------------------------------------------------------------------
                    Distance matrix (angstroms):
                    1          2          3          4          5
     1  C    0.000000
     2  Cl   1.766966   0.000000
     3  H    1.092200   2.361525   0.000000
     4  H    1.092200   2.361526   1.787816   0.000000
     5  H    1.092201   2.361526   1.787816   1.787816   0.000000
 Stoichiometry    CH3Cl
 Framework group  C3V[C3(CCl),3SGV(H)]
 Deg. of freedom     3
 Full point group                 C3V     NOp   6
 Largest Abelian subgroup         CS      NOp   2
 Largest concise Abelian subgroup CS      NOp   2
                         Standard orientation:                         
 ---------------------------------------------------------------------
 Center     Atomic      Atomic             Coordinates (Angstroms)
 Number     Number       Type             X           Y           Z
 ---------------------------------------------------------------------
      1          6           0        0.000000    0.000000   -1.114127
      2         17           0        0.000000    0.000000    0.652838
      3          1           0        0.000000    1.032196   -1.471161
      4          1           0        0.893908   -0.516098   -1.471161
      5          1           0       -0.893908   -0.516098   -1.471161
 ---------------------------------------------------------------------
 Rotational constants (GHZ):    156.8868478     13.4943942     13.4943942
 Leave Link  202 at Thu Mar 19 18:45:41 2026, MaxMem=   536870912 cpu:         0.0
 (Enter C:\G09W\l301.exe)
 Standard basis: 6-31G(d) (6D, 7F)
 Ernie: Thresh=  0.10000D-02 Tol=  0.10000D-05 Strict=F.
 There are    29 symmetry adapted cartesian basis functions of A'  symmetry.
 There are    11 symmetry adapted cartesian basis functions of A"  symmetry.
 There are    29 symmetry adapted basis functions of A'  symmetry.
 There are    11 symmetry adapted basis functions of A"  symmetry.
    40 basis functions,    92 primitive gaussians,    40 cartesian basis functions
    13 alpha electrons       13 beta electrons
       nuclear repulsion energy        51.5846244388 Hartrees.
 IExCor=  402 DFT=T Ex+Corr=B3LYP ExCW=0 ScaHFX=  0.200000
 ScaDFX=  0.800000  0.720000  1.000000  0.810000 ScalE2=  1.000000  1.000000
 IRadAn=      0 IRanWt=     -1 IRanGd=            0 ICorTp=0 IEmpDi=  4
 NAtoms=    5 NActive=    5 NUniq=    3 SFac= 2.78D+00 NAtFMM=   60 NAOKFM=F Big=F
 Integral buffers will be    131072 words long.
 Raffenetti 2 integral format.
 Two-electron integral symmetry is turned on.
 Leave Link  301 at Thu Mar 19 18:45:41 2026, MaxMem=   536870912 cpu:         0.0
 (Enter C:\G09W\l302.exe)
 NPDir=0 NMtPBC=     1 NCelOv=     1 NCel=       1 NClECP=     1 NCelD=      1
         NCelK=      1 NCelE2=     1 NClLst=     1 CellRange=     0.0.
 One-electron integrals computed using PRISM.
 One-electron integral symmetry used in STVInt
 NBasis=    40 RedAO= T EigKep=  2.11D-02  NBF=    29    11
 NBsUse=    40 1.00D-06 EigRej= -1.00D+00 NBFU=    29    11
 Precomputing XC quadrature grid using
 IXCGrd= 4 IRadAn=           0 IRanWt=          -1 IRanGd=           0 AccXCQ= 0.00D+00.
 Generated NRdTot=       0 NPtTot=           0 NUsed=           0 NTot=          32
 NSgBfM=    40    40    40    40    40 MxSgAt=     5 MxSgA2=     5.
 Leave Link  302 at Thu Mar 19 18:45:42 2026, MaxMem=   536870912 cpu:         1.0
 (Enter C:\G09W\l303.exe)
 DipDrv:  MaxL=1.
 Leave Link  303 at Thu Mar 19 18:45:42 2026, MaxMem=   536870912 cpu:         0.0
 (Enter C:\G09W\l401.exe)
 ExpMin= 1.43D-01 ExpMax= 2.52D+04 ExpMxC= 3.78D+03 IAcc=1 IRadAn=         1 AccDes= 0.00D+00
 Harris functional with IExCor=  402 and IRadAn=       1 diagonalized for initial guess.
 HarFok:  IExCor=  402 AccDes= 0.00D+00 IRadAn=         1 IDoV= 1 UseB2=F ITyADJ=14
 ICtDFT=  3500011 ScaDFX=  1.000000  1.000000  1.000000  1.000000
 FoFCou: FMM=F IPFlag=           0 FMFlag=      100000 FMFlg1=           0
         NFxFlg=           0 DoJE=T BraDBF=F KetDBF=T FulRan=T
         wScrn=  0.000000 ICntrl=     500 IOpCl=  0 I1Cent=   200000004 NGrid=           0
         NMat0=    1 NMatS0=      1 NMatT0=    0 NMatD0=    1 NMtDS0=    0 NMtDT0=    0
 Petite list used in FoFCou.
 Harris En= -500.043117992825    
 JPrj=0 DoOrth=F DoCkMO=F.
 Initial guess orbital symmetries:
       Occupied  (A1) (A1) (A1) (A1) (E) (E) (A1) (A1) (E) (E)
                 (A1) (E) (E)
       Virtual   (A1) (A1) (E) (E) (A1) (A1) (E) (E) (E) (E) (A1)
                 (E) (E) (A1) (E) (E) (E) (E) (A1) (A1) (E) (E)
                 (A1) (E) (E) (A1) (A1)
 The electronic state of the initial guess is 1-A1.
 Leave Link  401 at Thu Mar 19 18:45:43 2026, MaxMem=   536870912 cpu:         1.0
 (Enter C:\G09W\l502.exe)
 Closed shell SCF:
 Using DIIS extrapolation, IDIIS=  1040.
 Integral symmetry usage will be decided dynamically.
 Keep R1 ints in memory in symmetry-blocked form, NReq=1223342.
 IVT=       24014 IEndB=       24014 NGot=   536870912 MDV=   536667972
 LenX=   536667972 LenY=   536665931
 Requested convergence on RMS density matrix=1.00D-08 within 128 cycles.
 Requested convergence on MAX density matrix=1.00D-06.
 Requested convergence on             energy=1.00D-06.
 No special actions if energy rises.
 FoFCou: FMM=F IPFlag=           0 FMFlag=           0 FMFlg1=           0
         NFxFlg=           0 DoJE=F BraDBF=F KetDBF=F FulRan=T
         wScrn=  0.000000 ICntrl=     600 IOpCl=  0 I1Cent=           0 NGrid=           0
         NMat0=    1 NMatS0=    820 NMatT0=    0 NMatD0=    1 NMtDS0=    0 NMtDT0=    0
 Petite list used in FoFCou.
 Integral accuracy reduced to 1.0D-05 until final iterations.

 Cycle   1  Pass 0  IDiag  1:
 E= -500.063160481019    
 DIIS: error= 3.50D-02 at cycle   1 NSaved=   1.
 NSaved= 1 IEnMin= 1 EnMin= -500.063160481019     IErMin= 1 ErrMin= 3.50D-02
 ErrMax= 3.50D-02  0.00D+00 EMaxC= 1.00D-01 BMatC= 4.88D-02 BMatP= 4.88D-02
 IDIUse=3 WtCom= 6.50D-01 WtEn= 3.50D-01
 Coeff-Com:  0.100D+01
 Coeff-En:   0.100D+01
 Coeff:      0.100D+01
 Gap=     0.387 Goal=   None    Shift=    0.000
 GapD=    0.387 DampG=1.000 DampE=0.500 DampFc=0.5000 IDamp=-1.
 Damping current iteration by 5.00D-01
 RMSDP=9.70D-03 MaxDP=1.19D-01              OVMax= 1.72D-01

 Cycle   2  Pass 0  IDiag  1:
 E= -500.082355103901     Delta-E=       -0.019194622881 Rises=F Damp=T
 DIIS: error= 1.32D-02 at cycle   2 NSaved=   2.
 NSaved= 2 IEnMin= 2 EnMin= -500.082355103901     IErMin= 2 ErrMin= 1.32D-02
 ErrMax= 1.32D-02  0.00D+00 EMaxC= 1.00D-01 BMatC= 4.05D-03 BMatP= 4.88D-02
 IDIUse=3 WtCom= 8.68D-01 WtEn= 1.32D-01
 Coeff-Com:  0.663D-01 0.934D+00
 Coeff-En:   0.162D+00 0.838D+00
 Coeff:      0.789D-01 0.921D+00
 Gap=     0.346 Goal=   None    Shift=    0.000
 RMSDP=1.98D-03 MaxDP=2.91D-02 DE=-1.92D-02 OVMax= 9.87D-02

 Cycle   3  Pass 0  IDiag  1:
 E= -500.107432246298     Delta-E=       -0.025077142397 Rises=F Damp=F
 DIIS: error= 3.68D-03 at cycle   3 NSaved=   3.
 NSaved= 3 IEnMin= 3 EnMin= -500.107432246298     IErMin= 3 ErrMin= 3.68D-03
 ErrMax= 3.68D-03  0.00D+00 EMaxC= 1.00D-01 BMatC= 5.75D-04 BMatP= 4.05D-03
 IDIUse=3 WtCom= 9.63D-01 WtEn= 3.68D-02
 Coeff-Com: -0.371D-01 0.234D+00 0.803D+00
 Coeff-En:   0.000D+00 0.000D+00 0.100D+01
 Coeff:     -0.357D-01 0.225D+00 0.811D+00
 Gap=     0.334 Goal=   None    Shift=    0.000
 RMSDP=8.27D-04 MaxDP=8.03D-03 DE=-2.51D-02 OVMax= 1.10D-02

 Cycle   4  Pass 0  IDiag  1:
 E= -500.107973811866     Delta-E=       -0.000541565568 Rises=F Damp=F
 DIIS: error= 1.25D-03 at cycle   4 NSaved=   4.
 NSaved= 4 IEnMin= 4 EnMin= -500.107973811866     IErMin= 4 ErrMin= 1.25D-03
 ErrMax= 1.25D-03  0.00D+00 EMaxC= 1.00D-01 BMatC= 4.64D-05 BMatP= 5.75D-04
 IDIUse=3 WtCom= 9.87D-01 WtEn= 1.25D-02
 Coeff-Com: -0.104D-01 0.318D-01 0.273D+00 0.705D+00
 Coeff-En:   0.000D+00 0.000D+00 0.000D+00 0.100D+01
 Coeff:     -0.102D-01 0.314D-01 0.270D+00 0.709D+00
 Gap=     0.333 Goal=   None    Shift=    0.000
 RMSDP=2.17D-04 MaxDP=1.58D-03 DE=-5.42D-04 OVMax= 2.37D-03

 Cycle   5  Pass 0  IDiag  1:
 E= -500.108021434556     Delta-E=       -0.000047622690 Rises=F Damp=F
 DIIS: error= 5.52D-05 at cycle   5 NSaved=   5.
 NSaved= 5 IEnMin= 5 EnMin= -500.108021434556     IErMin= 5 ErrMin= 5.52D-05
 ErrMax= 5.52D-05  0.00D+00 EMaxC= 1.00D-01 BMatC= 2.23D-07 BMatP= 4.64D-05
 IDIUse=1 WtCom= 1.00D+00 WtEn= 0.00D+00
 Coeff-Com: -0.184D-02 0.492D-02 0.536D-01 0.168D+00 0.775D+00
 Coeff:     -0.184D-02 0.492D-02 0.536D-01 0.168D+00 0.775D+00
 Gap=     0.333 Goal=   None    Shift=    0.000
 RMSDP=1.85D-05 MaxDP=2.84D-04 DE=-4.76D-05 OVMax= 1.58D-04

 Cycle   6  Pass 0  IDiag  1:
 E= -500.108021670841     Delta-E=       -0.000000236285 Rises=F Damp=F
 DIIS: error= 1.47D-05 at cycle   6 NSaved=   6.
 NSaved= 6 IEnMin= 6 EnMin= -500.108021670841     IErMin= 6 ErrMin= 1.47D-05
 ErrMax= 1.47D-05  0.00D+00 EMaxC= 1.00D-01 BMatC= 9.12D-09 BMatP= 2.23D-07
 IDIUse=1 WtCom= 1.00D+00 WtEn= 0.00D+00
 Coeff-Com: -0.852D-04-0.115D-03 0.580D-02 0.213D-01 0.175D+00 0.798D+00
 Coeff:     -0.852D-04-0.115D-03 0.580D-02 0.213D-01 0.175D+00 0.798D+00
 Gap=     0.333 Goal=   None    Shift=    0.000
 RMSDP=3.92D-06 MaxDP=6.28D-05 DE=-2.36D-07 OVMax= 3.18D-05

 Initial convergence to 1.0D-05 achieved.  Increase integral accuracy.
 Cycle   7  Pass 1  IDiag  1:
 E= -500.108054574236     Delta-E=       -0.000032903396 Rises=F Damp=F
 DIIS: error= 1.36D-05 at cycle   1 NSaved=   1.
 NSaved= 1 IEnMin= 1 EnMin= -500.108054574236     IErMin= 1 ErrMin= 1.36D-05
 ErrMax= 1.36D-05  0.00D+00 EMaxC= 1.00D-01 BMatC= 5.72D-09 BMatP= 5.72D-09
 IDIUse=1 WtCom= 1.00D+00 WtEn= 0.00D+00
 Coeff-Com:  0.100D+01
 Coeff:      0.100D+01
 Gap=     0.333 Goal=   None    Shift=    0.000
 RMSDP=3.92D-06 MaxDP=6.28D-05 DE=-3.29D-05 OVMax= 1.36D-05

 Cycle   8  Pass 1  IDiag  1:
 E= -500.108054576646     Delta-E=       -0.000000002409 Rises=F Damp=F
 DIIS: error= 1.43D-06 at cycle   2 NSaved=   2.
 NSaved= 2 IEnMin= 2 EnMin= -500.108054576646     IErMin= 2 ErrMin= 1.43D-06
 ErrMax= 1.43D-06  0.00D+00 EMaxC= 1.00D-01 BMatC= 8.40D-11 BMatP= 5.72D-09
 IDIUse=1 WtCom= 1.00D+00 WtEn= 0.00D+00
 Coeff-Com:  0.319D-01 0.968D+00
 Coeff:      0.319D-01 0.968D+00
 Gap=     0.333 Goal=   None    Shift=    0.000
 RMSDP=4.91D-07 MaxDP=1.07D-05 DE=-2.41D-09 OVMax= 3.39D-06

 Cycle   9  Pass 1  IDiag  1:
 E= -500.108054576691     Delta-E=       -0.000000000045 Rises=F Damp=F
 DIIS: error= 6.33D-07 at cycle   3 NSaved=   3.
 NSaved= 3 IEnMin= 3 EnMin= -500.108054576691     IErMin= 3 ErrMin= 6.33D-07
 ErrMax= 6.33D-07  0.00D+00 EMaxC= 1.00D-01 BMatC= 2.73D-11 BMatP= 8.40D-11
 IDIUse=1 WtCom= 1.00D+00 WtEn= 0.00D+00
 Coeff-Com: -0.203D-02 0.351D+00 0.651D+00
 Coeff:     -0.203D-02 0.351D+00 0.651D+00
 Gap=     0.333 Goal=   None    Shift=    0.000
 RMSDP=2.09D-07 MaxDP=3.40D-06 DE=-4.50D-11 OVMax= 2.55D-06

 Cycle  10  Pass 1  IDiag  1:
 E= -500.108054576715     Delta-E=       -0.000000000025 Rises=F Damp=F
 DIIS: error= 2.46D-07 at cycle   4 NSaved=   4.
 NSaved= 4 IEnMin= 4 EnMin= -500.108054576715     IErMin= 4 ErrMin= 2.46D-07
 ErrMax= 2.46D-07  0.00D+00 EMaxC= 1.00D-01 BMatC= 3.69D-12 BMatP= 2.73D-11
 IDIUse=1 WtCom= 1.00D+00 WtEn= 0.00D+00
 Coeff-Com: -0.242D-02 0.122D+00 0.345D+00 0.535D+00
 Coeff:     -0.242D-02 0.122D+00 0.345D+00 0.535D+00
 Gap=     0.333 Goal=   None    Shift=    0.000
 RMSDP=5.37D-08 MaxDP=7.23D-07 DE=-2.46D-11 OVMax= 9.27D-07

 Cycle  11  Pass 1  IDiag  1:
 E= -500.108054576719     Delta-E=       -0.000000000004 Rises=F Damp=F
 DIIS: error= 4.17D-08 at cycle   5 NSaved=   5.
 NSaved= 5 IEnMin= 5 EnMin= -500.108054576719     IErMin= 5 ErrMin= 4.17D-08
 ErrMax= 4.17D-08  0.00D+00 EMaxC= 1.00D-01 BMatC= 9.30D-14 BMatP= 3.69D-12
 IDIUse=1 WtCom= 1.00D+00 WtEn= 0.00D+00
 Coeff-Com: -0.107D-02 0.461D-01 0.143D+00 0.239D+00 0.573D+00
 Coeff:     -0.107D-02 0.461D-01 0.143D+00 0.239D+00 0.573D+00
 Gap=     0.333 Goal=   None    Shift=    0.000
 RMSDP=9.08D-09 MaxDP=1.27D-07 DE=-3.64D-12 OVMax= 8.21D-08

 SCF Done:  E(RB3LYP) =  -500.108054577     A.U. after   11 cycles
            NFock= 11  Conv=0.91D-08     -V/T= 2.0036
 KE= 4.983228290833D+02 PE=-1.289122833884D+03 EE= 2.391073257854D+02
 Leave Link  502 at Thu Mar 19 18:45:45 2026, MaxMem=   536870912 cpu:         2.0
 (Enter C:\G09W\l601.exe)
 Copying SCF densities to generalized density rwf, IOpCl= 0 IROHF=0.

 **********************************************************************

            Population analysis using the SCF density.

 **********************************************************************

 Orbital symmetries:
       Occupied  (A1) (A1) (A1) (A1) (E) (E) (A1) (A1) (E) (E)
                 (A1) (E) (E)
       Virtual   (A1) (A1) (E) (E) (A1) (A1) (E) (E) (E) (E) (A1)
                 (E) (E) (A1) (E) (E) (E) (E) (A1) (A1) (E) (E)
                 (A1) (E) (E) (A1) (A1)
 The electronic state is 1-A1.
 Alpha  occ. eigenvalues -- -101.53564 -10.24330  -9.45258  -7.21673  -7.20650
 Alpha  occ. eigenvalues --   -7.20650  -0.85646  -0.67713  -0.45242  -0.45242
 Alpha  occ. eigenvalues --   -0.41751  -0.29597  -0.29597
 Alpha virt. eigenvalues --    0.03731   0.10887   0.14187   0.14187   0.40133
 Alpha virt. eigenvalues --    0.43546   0.46127   0.46127   0.52794   0.52794
 Alpha virt. eigenvalues --    0.56181   0.83169   0.83169   0.88288   0.89470
 Alpha virt. eigenvalues --    0.89470   0.93562   0.93562   1.04725   1.23869
 Alpha virt. eigenvalues --    1.69264   1.69264   2.15127   2.20416   2.20416
 Alpha virt. eigenvalues --    4.08430   4.30970
          Condensed to atoms (all electrons):
               1          2          3          4          5
     1  C    5.180713   0.219157   0.374538   0.374538   0.374538
     2  Cl   0.219157  16.993561  -0.045562  -0.045562  -0.045562
     3  H    0.374538  -0.045562   0.530058  -0.029436  -0.029436
     4  H    0.374538  -0.045562  -0.029436   0.530058  -0.029436
     5  H    0.374538  -0.045562  -0.029436  -0.029436   0.530058
 Mulliken charges:
               1
     1  C   -0.523484
     2  Cl  -0.076032
     3  H    0.199839
     4  H    0.199839
     5  H    0.199839
 Sum of Mulliken charges =   0.00000
 Mulliken charges with hydrogens summed into heavy atoms:
               1
     1  C    0.076032
     2  Cl  -0.076032
 Electronic spatial extent (au):  <R**2>=            129.8486
 Charge=              0.0000 electrons
 Dipole moment (field-independent basis, Debye):
    X=              0.0000    Y=              0.0000    Z=             -1.9866  Tot=              1.9866
 Quadrupole moment (field-independent basis, Debye-Ang):
   XX=            -19.7354   YY=            -19.7354   ZZ=            -18.0670
   XY=              0.0000   XZ=              0.0000   YZ=              0.0000
 Traceless Quadrupole moment (field-independent basis, Debye-Ang):
   XX=             -0.5561   YY=             -0.5561   ZZ=              1.1122
   XY=              0.0000   XZ=              0.0000   YZ=              0.0000
 Octapole moment (field-independent basis, Debye-Ang**2):
  XXX=              0.0000  YYY=              0.7458  ZZZ=              2.0326  XYY=              0.0000
  XXY=             -0.7458  XXZ=             -0.8522  XZZ=              0.0000  YZZ=              0.0000
  YYZ=             -0.8522  XYZ=              0.0000
 Hexadecapole moment (field-independent basis, Debye-Ang**3):
 XXXX=            -27.3950 YYYY=            -27.3950 ZZZZ=           -113.0853 XXXY=              0.0000
 XXXZ=              0.0000 YYYX=              0.0000 YYYZ=             -1.0773 ZZZX=              0.0000
 ZZZY=              0.0000 XXYY=             -9.1317 XXZZ=            -23.4611 YYZZ=            -23.4611
 XXYZ=              1.0773 YYXZ=              0.0000 ZZXY=              0.0000
 N-N= 5.158462443881D+01 E-N=-1.289122829483D+03  KE= 4.983228290833D+02
 Symmetry A'   KE= 4.505417101928D+02
 Symmetry A"   KE= 4.778111889047D+01
 No NMR shielding tensors so no spin-rotation constants.
 Leave Link  601 at Thu Mar 19 18:45:45 2026, MaxMem=   536870912 cpu:         0.0
 (Enter C:\G09W\l701.exe)
 Compute integral first derivatives.
 ... and contract with generalized density number  0.
 Leave Link  701 at Thu Mar 19 18:45:45 2026, MaxMem=   536870912 cpu:         0.0
 (Enter C:\G09W\l702.exe)
 L702 exits ... SP integral derivatives will be done elsewhere.
 Leave Link  702 at Thu Mar 19 18:45:45 2026, MaxMem=   536870912 cpu:         0.0
 (Enter C:\G09W\l703.exe)
 Compute integral first derivatives, UseDBF=F ICtDFT=           0.
 Integral derivatives from FoFJK, PRISM(SPDF).
 Calling FoFJK, ICntrl=      2127 FMM=F ISym2X=1 I1Cent= 0 IOpClX= 0 NMat=1 NMatS=1 NMatT=0.
 FoFJK:  IHMeth= 1 ICntrl=    2127 DoSepK=F KAlg= 0 I1Cent=   0 FoldK=F
 IRaf=         0 NMat=   1 IRICut=       1 DoRegI=T DoRafI=F ISym2E= 1.
 FoFCou: FMM=F IPFlag=           0 FMFlag=      100000 FMFlg1=         800
         NFxFlg=           0 DoJE=F BraDBF=F KetDBF=F FulRan=T
         wScrn=  0.000000 ICntrl=    2127 IOpCl=  0 I1Cent=           0 NGrid=           0
         NMat0=    1 NMatS0=      1 NMatT0=    0 NMatD0=    1 NMtDS0=    0 NMtDT0=    0
 Petite list used in FoFCou.
 Leave Link  703 at Thu Mar 19 18:45:46 2026, MaxMem=   536870912 cpu:         1.0
 (Enter C:\G09W\l716.exe)
 Dipole        =-2.22044605D-16 1.11022302D-16-7.81595677D-01
 ***** Axes restored to original set *****
 -------------------------------------------------------------------
 Center     Atomic                   Forces (Hartrees/Bohr)
 Number     Number              X              Y              Z
 -------------------------------------------------------------------
      1        6          -0.014233060   -0.000699895    0.000334886
      2       17           0.014459378    0.000711024   -0.000340211
      3        1          -0.000084757    0.000498846    0.000656108
      4        1          -0.000108830    0.000310652   -0.000760369
      5        1          -0.000032732   -0.000820627    0.000109585
 -------------------------------------------------------------------
 Cartesian Forces:  Max     0.014459378 RMS     0.005259509
 Leave Link  716 at Thu Mar 19 18:45:46 2026, MaxMem=   536870912 cpu:         0.0
 (Enter C:\G09W\l103.exe)

 GradGradGradGradGradGradGradGradGradGradGradGradGradGradGradGradGradGrad
 Berny optimization.
 FormGI is forming the generalized inverse of G from B-inverse, IUseBI=4.
 Internal  Forces:  Max     0.014480847 RMS     0.003888718
 Search for a local minimum.
 Step number   1 out of a maximum of   24
 All quantities printed in internal units (Hartrees-Bohrs-Radians)
 RMS Force = .38887D-02 SwitMx=.10000D-02 MixMth= 1
 Mixed Optimization -- RFO/linear search
 Second derivative matrix not updated -- first step.
 The second derivative matrix:
                          R1        R2        R3        R4        A1
           R1           0.28902
           R2           0.00000   0.34560
           R3           0.00000   0.00000   0.34560
           R4           0.00000   0.00000   0.00000   0.34560
           A1           0.00000   0.00000   0.00000   0.00000   0.16000
           A2           0.00000   0.00000   0.00000   0.00000   0.00000
           A3           0.00000   0.00000   0.00000   0.00000   0.00000
           A4           0.00000   0.00000   0.00000   0.00000   0.00000
           A5           0.00000   0.00000   0.00000   0.00000   0.00000
           A6           0.00000   0.00000   0.00000   0.00000   0.00000
           D1           0.00000   0.00000   0.00000   0.00000   0.00000
           D2           0.00000   0.00000   0.00000   0.00000   0.00000
           D3           0.00000   0.00000   0.00000   0.00000   0.00000
           D4           0.00000   0.00000   0.00000   0.00000   0.00000
                          A2        A3        A4        A5        A6
           A2           0.16000
           A3           0.00000   0.16000
           A4           0.00000   0.00000   0.16000
           A5           0.00000   0.00000   0.00000   0.16000
           A6           0.00000   0.00000   0.00000   0.00000   0.16000
           D1           0.00000   0.00000   0.00000   0.00000   0.00000
           D2           0.00000   0.00000   0.00000   0.00000   0.00000
           D3           0.00000   0.00000   0.00000   0.00000   0.00000
           D4           0.00000   0.00000   0.00000   0.00000   0.00000
                          D1        D2        D3        D4
           D1           0.00230
           D2           0.00000   0.00230
           D3           0.00000   0.00000   0.00230
           D4           0.00000   0.00000   0.00000   0.00230
 ITU=  0
     Eigenvalues ---    0.05060   0.05667   0.08713   0.16000   0.16000
     Eigenvalues ---    0.28902   0.34560   0.34560   0.34560
 RFO step:  Lambda=-7.33177540D-04 EMin= 5.05988053D-02
 Linear search not attempted -- first point.
 Iteration  1 RMS(Cart)=  0.01270060 RMS(Int)=  0.00000443
 Iteration  2 RMS(Cart)=  0.00000234 RMS(Int)=  0.00000368
 Iteration  3 RMS(Cart)=  0.00000000 RMS(Int)=  0.00000368
 ITry= 1 IFail=0 DXMaxC= 4.20D-02 DCOld= 1.00D+10 DXMaxT= 3.00D-01 DXLimC= 3.00D+00 Rises=F
 ClnCor:  largest displacement from symmetrization is 8.00D-05 for atom     5.
 Variable       Old X    -DE/DX   Delta X   Delta X   Delta X     New X
                                 (Linear)    (Quad)   (Total)
    R1        3.33908   0.01448   0.00000   0.04998   0.04998   3.38906
    R2        2.06396  -0.00076   0.00000  -0.00218  -0.00219   2.06177
    R3        2.06396  -0.00076   0.00000  -0.00218  -0.00219   2.06177
    R4        2.06396  -0.00076   0.00000  -0.00218  -0.00219   2.06177
    A1        1.90381   0.00008   0.00000   0.00212   0.00213   1.90594
    A2        1.90381   0.00012   0.00000   0.00215   0.00213   1.90594
    A3        1.90381   0.00024   0.00000   0.00218   0.00213   1.90594
    A4        1.91741  -0.00003   0.00000  -0.00208  -0.00211   1.91530
    A5        1.91741  -0.00019   0.00000  -0.00214  -0.00211   1.91530
    A6        1.91741  -0.00021   0.00000  -0.00214  -0.00211   1.91530
    D1       -2.08599  -0.00015   0.00000  -0.00265  -0.00264  -2.08863
    D2        2.08599   0.00012   0.00000   0.00263   0.00264   2.08863
    D3       -2.08599  -0.00016   0.00000  -0.00267  -0.00264  -2.08863
    D4        2.11121  -0.00029   0.00000  -0.00530  -0.00528   2.10593
         Item               Value     Threshold  Converged?
 Maximum Force            0.014481     0.000450     NO 
 RMS     Force            0.003889     0.000300     NO 
 Maximum Displacement     0.042004     0.001800     NO 
 RMS     Displacement     0.012693     0.001200     NO 
 Predicted change in Energy=-3.675318D-04
 Lowest energy point so far.  Saving SCF results.
 GradGradGradGradGradGradGradGradGradGradGradGradGradGradGradGradGradGrad

 Leave Link  103 at Thu Mar 19 18:45:46 2026, MaxMem=   536870912 cpu:         0.0
 (Enter C:\G09W\l202.exe)
                          Input orientation:                          
 ---------------------------------------------------------------------
 Center     Atomic      Atomic             Coordinates (Angstroms)
 Number     Number       Type             X           Y           Z
 ---------------------------------------------------------------------
      1          6           0       -0.143146   -0.007039    0.003368
      2         17           0        1.647608    0.081019   -0.038766
      3          1           0       -0.489833   -0.652218   -0.805290
      4          1           0       -0.459771   -0.417214    0.963514
      5          1           0       -0.554798    0.995454   -0.122827
 ---------------------------------------------------------------------
                    Distance matrix (angstroms):
                    1          2          3          4          5
     1  C    0.000000
     2  Cl   1.793412   0.000000
     3  H    1.091043   2.386178   0.000000
     4  H    1.091043   2.386178   1.784600   0.000000
     5  H    1.091043   2.386178   1.784600   1.784600   0.000000
 Stoichiometry    CH3Cl
 Framework group  C3V[C3(CCl),3SGV(H)]
 Deg. of freedom     3
 Full point group                 C3V     NOp   6
 RotChk:  IX=0 Diff= 5.74D-16
 Largest Abelian subgroup         CS      NOp   2
 Largest concise Abelian subgroup CS      NOp   2
                         Standard orientation:                         
 ---------------------------------------------------------------------
 Center     Atomic      Atomic             Coordinates (Angstroms)
 Number     Number       Type             X           Y           Z
 ---------------------------------------------------------------------
      1          6           0        0.000000    0.000000   -1.131209
      2         17           0        0.000000    0.000000    0.662203
      3          1           0        0.000000    1.030339   -1.490063
      4          1           0        0.892300   -0.515170   -1.490063
      5          1           0       -0.892300   -0.515170   -1.490063
 ---------------------------------------------------------------------
 Rotational constants (GHZ):    157.4527221     13.1293930     13.1293930
 Leave Link  202 at Thu Mar 19 18:45:46 2026, MaxMem=   536870912 cpu:         0.0
 (Enter C:\G09W\l301.exe)
 Standard basis: 6-31G(d) (6D, 7F)
 Ernie: Thresh=  0.10000D-02 Tol=  0.10000D-05 Strict=F.
 There are    29 symmetry adapted cartesian basis functions of A'  symmetry.
 There are    11 symmetry adapted cartesian basis functions of A"  symmetry.
 There are    29 symmetry adapted basis functions of A'  symmetry.
 There are    11 symmetry adapted basis functions of A"  symmetry.
    40 basis functions,    92 primitive gaussians,    40 cartesian basis functions
    13 alpha electrons       13 beta electrons
       nuclear repulsion energy        51.0269353618 Hartrees.
 IExCor=  402 DFT=T Ex+Corr=B3LYP ExCW=0 ScaHFX=  0.200000
 ScaDFX=  0.800000  0.720000  1.000000  0.810000 ScalE2=  1.000000  1.000000
 IRadAn=      0 IRanWt=     -1 IRanGd=            0 ICorTp=0 IEmpDi=  4
 NAtoms=    5 NActive=    5 NUniq=    3 SFac= 2.78D+00 NAtFMM=   60 NAOKFM=F Big=F
 Integral buffers will be    131072 words long.
 Raffenetti 2 integral format.
 Two-electron integral symmetry is turned on.
 Leave Link  301 at Thu Mar 19 18:45:47 2026, MaxMem=   536870912 cpu:         0.0
 (Enter C:\G09W\l302.exe)
 NPDir=0 NMtPBC=     1 NCelOv=     1 NCel=       1 NClECP=     1 NCelD=      1
         NCelK=      1 NCelE2=     1 NClLst=     1 CellRange=     0.0.
 One-electron integrals computed using PRISM.
 One-electron integral symmetry used in STVInt
 NBasis=    40 RedAO= T EigKep=  2.14D-02  NBF=    29    11
 NBsUse=    40 1.00D-06 EigRej= -1.00D+00 NBFU=    29    11
 Precomputing XC quadrature grid using
 IXCGrd= 4 IRadAn=           0 IRanWt=          -1 IRanGd=           0 AccXCQ= 0.00D+00.
 Generated NRdTot=       0 NPtTot=           0 NUsed=           0 NTot=          32
 NSgBfM=    40    40    40    40    40 MxSgAt=     5 MxSgA2=     5.
 Leave Link  302 at Thu Mar 19 18:45:47 2026, MaxMem=   536870912 cpu:         0.0
 (Enter C:\G09W\l303.exe)
 DipDrv:  MaxL=1.
 Leave Link  303 at Thu Mar 19 18:45:47 2026, MaxMem=   536870912 cpu:         0.0
 (Enter C:\G09W\l401.exe)
 Initial guess from the checkpoint file:  "chloromethane_rdkit.chk"
 B after Tr=     0.000000    0.000000    0.000000
         Rot=    1.000000    0.000000    0.000000    0.000000 Ang=   0.00 deg.
 Guess basis will be translated and rotated to current coordinates.
 JPrj=2 DoOrth=T DoCkMO=T.
 Initial guess orbital symmetries:
       Occupied  (A1) (A1) (A1) (A1) (E) (E) (A1) (A1) (E) (E)
                 (A1) (E) (E)
       Virtual   (?A) (?A) (?A) (?A) (?A) (?A) (?A) (?A) (?A) (?A)
                 (?A) (?A) (?A) (?A) (?A) (?A) (?A) (?A) (?A) (?A)
                 (?A) (?A) (?A) (?A) (?A) (?A) (?A)
 The electronic state of the initial guess is 1-A1.
 Generating alternative initial guess.
 ExpMin= 1.43D-01 ExpMax= 2.52D+04 ExpMxC= 3.78D+03 IAcc=1 IRadAn=         1 AccDes= 0.00D+00
 Harris functional with IExCor=  402 and IRadAn=       1 diagonalized for initial guess.
 HarFok:  IExCor=  402 AccDes= 0.00D+00 IRadAn=         1 IDoV= 1 UseB2=F ITyADJ=14
 ICtDFT=  3500011 ScaDFX=  1.000000  1.000000  1.000000  1.000000
 FoFCou: FMM=F IPFlag=           0 FMFlag=      100000 FMFlg1=           0
         NFxFlg=           0 DoJE=T BraDBF=F KetDBF=T FulRan=T
         wScrn=  0.000000 ICntrl=     500 IOpCl=  0 I1Cent=   200000004 NGrid=           0
         NMat0=    1 NMatS0=      1 NMatT0=    0 NMatD0=    1 NMtDS0=    0 NMtDT0=    0
 Petite list used in FoFCou.
 Harris En= -500.044193661774    
 Leave Link  401 at Thu Mar 19 18:45:48 2026, MaxMem=   536870912 cpu:         1.0
 (Enter C:\G09W\l502.exe)
 Closed shell SCF:
 Using DIIS extrapolation, IDIIS=  1040.
 Integral symmetry usage will be decided dynamically.
 Keep R1 ints in memory in symmetry-blocked form, NReq=1223342.
 IVT=       24014 IEndB=       24014 NGot=   536870912 MDV=   536667972
 LenX=   536667972 LenY=   536665931
 Requested convergence on RMS density matrix=1.00D-08 within 128 cycles.
 Requested convergence on MAX density matrix=1.00D-06.
 Requested convergence on             energy=1.00D-06.
 No special actions if energy rises.
 FoFCou: FMM=F IPFlag=           0 FMFlag=           0 FMFlg1=           0
         NFxFlg=           0 DoJE=F BraDBF=F KetDBF=F FulRan=T
         wScrn=  0.000000 ICntrl=     600 IOpCl=  0 I1Cent=           0 NGrid=           0
         NMat0=    1 NMatS0=    820 NMatT0=    0 NMatD0=    1 NMtDS0=    0 NMtDT0=    0
 Petite list used in FoFCou.
 Integral accuracy reduced to 1.0D-05 until final iterations.

 Cycle   1  Pass 0  IDiag  1:
 E= -500.108285422013    
 DIIS: error= 1.35D-03 at cycle   1 NSaved=   1.
 NSaved= 1 IEnMin= 1 EnMin= -500.108285422013     IErMin= 1 ErrMin= 1.35D-03
 ErrMax= 1.35D-03  0.00D+00 EMaxC= 1.00D-01 BMatC= 8.86D-05 BMatP= 8.86D-05
 IDIUse=3 WtCom= 9.86D-01 WtEn= 1.35D-02
 Coeff-Com:  0.100D+01
 Coeff-En:   0.100D+01
 Coeff:      0.100D+01
 Gap=     0.823 Goal=   None    Shift=    0.000
 GapD=    0.823 DampG=2.000 DampE=1.000 DampFc=2.0000 IDamp=-1.
 RMSDP=4.46D-04 MaxDP=3.83D-03              OVMax= 6.04D-03

 Cycle   2  Pass 0  IDiag  1:
 E= -500.108417173817     Delta-E=       -0.000131751805 Rises=F Damp=F
 DIIS: error= 4.93D-04 at cycle   2 NSaved=   2.
 NSaved= 2 IEnMin= 2 EnMin= -500.108417173817     IErMin= 2 ErrMin= 4.93D-04
 ErrMax= 4.93D-04  0.00D+00 EMaxC= 1.00D-01 BMatC= 1.51D-05 BMatP= 8.86D-05
 IDIUse=3 WtCom= 9.95D-01 WtEn= 4.93D-03
 Coeff-Com:  0.204D+00 0.796D+00
 Coeff-En:   0.000D+00 0.100D+01
 Coeff:      0.203D+00 0.797D+00
 Gap=     0.325 Goal=   None    Shift=    0.000
 RMSDP=1.60D-04 MaxDP=1.76D-03 DE=-1.32D-04 OVMax= 2.56D-03

 Cycle   3  Pass 0  IDiag  1:
 E= -500.108421821002     Delta-E=       -0.000004647185 Rises=F Damp=F
 DIIS: error= 4.87D-04 at cycle   3 NSaved=   3.
 NSaved= 3 IEnMin= 3 EnMin= -500.108421821002     IErMin= 3 ErrMin= 4.87D-04
 ErrMax= 4.87D-04  0.00D+00 EMaxC= 1.00D-01 BMatC= 1.05D-05 BMatP= 1.51D-05
 IDIUse=3 WtCom= 9.95D-01 WtEn= 4.87D-03
 Coeff-Com: -0.826D-02 0.454D+00 0.554D+00
 Coeff-En:   0.000D+00 0.419D+00 0.581D+00
 Coeff:     -0.822D-02 0.454D+00 0.554D+00
 Gap=     0.325 Goal=   None    Shift=    0.000
 RMSDP=8.09D-05 MaxDP=9.04D-04 DE=-4.65D-06 OVMax= 1.41D-03

 Cycle   4  Pass 0  IDiag  1:
 E= -500.108432590768     Delta-E=       -0.000010769766 Rises=F Damp=F
 DIIS: error= 5.69D-05 at cycle   4 NSaved=   4.
 NSaved= 4 IEnMin= 4 EnMin= -500.108432590768     IErMin= 4 ErrMin= 5.69D-05
 ErrMax= 5.69D-05  0.00D+00 EMaxC= 1.00D-01 BMatC= 1.49D-07 BMatP= 1.05D-05
 IDIUse=1 WtCom= 1.00D+00 WtEn= 0.00D+00
 Coeff-Com: -0.103D-01 0.144D+00 0.214D+00 0.652D+00
 Coeff:     -0.103D-01 0.144D+00 0.214D+00 0.652D+00
 Gap=     0.325 Goal=   None    Shift=    0.000
 RMSDP=1.07D-05 MaxDP=1.49D-04 DE=-1.08D-05 OVMax= 1.46D-04

 Cycle   5  Pass 0  IDiag  1:
 E= -500.108432738229     Delta-E=       -0.000000147461 Rises=F Damp=F
 DIIS: error= 7.04D-06 at cycle   5 NSaved=   5.
 NSaved= 5 IEnMin= 5 EnMin= -500.108432738229     IErMin= 5 ErrMin= 7.04D-06
 ErrMax= 7.04D-06  0.00D+00 EMaxC= 1.00D-01 BMatC= 3.85D-09 BMatP= 1.49D-07
 IDIUse=1 WtCom= 1.00D+00 WtEn= 0.00D+00
 Coeff-Com: -0.245D-02 0.246D-01 0.432D-01 0.203D+00 0.731D+00
 Coeff:     -0.245D-02 0.246D-01 0.432D-01 0.203D+00 0.731D+00
 Gap=     0.325 Goal=   None    Shift=    0.000
 RMSDP=2.48D-06 MaxDP=4.67D-05 DE=-1.47D-07 OVMax= 2.04D-05

 Initial convergence to 1.0D-05 achieved.  Increase integral accuracy.
 Cycle   6  Pass 1  IDiag  1:
 E= -500.108464397900     Delta-E=       -0.000031659671 Rises=F Damp=F
 DIIS: error= 1.51D-05 at cycle   1 NSaved=   1.
 NSaved= 1 IEnMin= 1 EnMin= -500.108464397900     IErMin= 1 ErrMin= 1.51D-05
 ErrMax= 1.51D-05  0.00D+00 EMaxC= 1.00D-01 BMatC= 5.98D-09 BMatP= 5.98D-09
 IDIUse=1 WtCom= 1.00D+00 WtEn= 0.00D+00
 Coeff-Com:  0.100D+01
 Coeff:      0.100D+01
 Gap=     0.325 Goal=   None    Shift=    0.000
 RMSDP=2.48D-06 MaxDP=4.67D-05 DE=-3.17D-05 OVMax= 2.28D-05

 Cycle   7  Pass 1  IDiag  1:
 E= -500.108464400034     Delta-E=       -0.000000002134 Rises=F Damp=F
 DIIS: error= 3.70D-06 at cycle   2 NSaved=   2.
 NSaved= 2 IEnMin= 2 EnMin= -500.108464400034     IErMin= 2 ErrMin= 3.70D-06
 ErrMax= 3.70D-06  0.00D+00 EMaxC= 1.00D-01 BMatC= 7.89D-10 BMatP= 5.98D-09
 IDIUse=1 WtCom= 1.00D+00 WtEn= 0.00D+00
 Coeff-Com:  0.187D+00 0.813D+00
 Coeff:      0.187D+00 0.813D+00
 Gap=     0.325 Goal=   None    Shift=    0.000
 RMSDP=1.63D-06 MaxDP=2.89D-05 DE=-2.13D-09 OVMax= 1.83D-05

 Cycle   8  Pass 1  IDiag  1:
 E= -500.108464400481     Delta-E=       -0.000000000447 Rises=F Damp=F
 DIIS: error= 2.01D-06 at cycle   3 NSaved=   3.
 NSaved= 3 IEnMin= 3 EnMin= -500.108464400481     IErMin= 3 ErrMin= 2.01D-06
 ErrMax= 2.01D-06  0.00D+00 EMaxC= 1.00D-01 BMatC= 3.48D-10 BMatP= 7.89D-10
 IDIUse=1 WtCom= 1.00D+00 WtEn= 0.00D+00
 Coeff-Com:  0.259D-02 0.397D+00 0.600D+00
 Coeff:      0.259D-02 0.397D+00 0.600D+00
 Gap=     0.325 Goal=   None    Shift=    0.000
 RMSDP=6.47D-07 MaxDP=9.68D-06 DE=-4.47D-10 OVMax= 9.76D-06

 Cycle   9  Pass 1  IDiag  1:
 E= -500.108464400846     Delta-E=       -0.000000000365 Rises=F Damp=F
 DIIS: error= 7.25D-07 at cycle   4 NSaved=   4.
 NSaved= 4 IEnMin= 4 EnMin= -500.108464400846     IErMin= 4 ErrMin= 7.25D-07
 ErrMax= 7.25D-07  0.00D+00 EMaxC= 1.00D-01 BMatC= 1.76D-11 BMatP= 3.48D-10
 IDIUse=1 WtCom= 1.00D+00 WtEn= 0.00D+00
 Coeff-Com: -0.334D-02 0.195D+00 0.335D+00 0.473D+00
 Coeff:     -0.334D-02 0.195D+00 0.335D+00 0.473D+00
 Gap=     0.325 Goal=   None    Shift=    0.000
 RMSDP=9.42D-08 MaxDP=9.87D-07 DE=-3.65D-10 OVMax= 1.42D-06

 Cycle  10  Pass 1  IDiag  1:
 E= -500.108464400861     Delta-E=       -0.000000000016 Rises=F Damp=F
 DIIS: error= 4.62D-08 at cycle   5 NSaved=   5.
 NSaved= 5 IEnMin= 5 EnMin= -500.108464400861     IErMin= 5 ErrMin= 4.62D-08
 ErrMax= 4.62D-08  0.00D+00 EMaxC= 1.00D-01 BMatC= 8.19D-14 BMatP= 1.76D-11
 IDIUse=1 WtCom= 1.00D+00 WtEn= 0.00D+00
 Coeff-Com: -0.940D-03 0.375D-01 0.735D-01 0.111D+00 0.779D+00
 Coeff:     -0.940D-03 0.375D-01 0.735D-01 0.111D+00 0.779D+00
 Gap=     0.325 Goal=   None    Shift=    0.000
 RMSDP=8.59D-09 MaxDP=9.06D-08 DE=-1.58D-11 OVMax= 1.08D-07

 SCF Done:  E(RB3LYP) =  -500.108464401     A.U. after   10 cycles
            NFock= 10  Conv=0.86D-08     -V/T= 2.0037
 KE= 4.982875737883D+02 PE=-1.287987393214D+03 EE= 2.385644196634D+02
 Leave Link  502 at Thu Mar 19 18:45:49 2026, MaxMem=   536870912 cpu:         1.0
 (Enter C:\G09W\l701.exe)
 Compute integral first derivatives.
 ... and contract with generalized density number  0.
 Leave Link  701 at Thu Mar 19 18:45:49 2026, MaxMem=   536870912 cpu:         0.0
 (Enter C:\G09W\l702.exe)
 L702 exits ... SP integral derivatives will be done elsewhere.
 Leave Link  702 at Thu Mar 19 18:45:49 2026, MaxMem=   536870912 cpu:         0.0
 (Enter C:\G09W\l703.exe)
 Compute integral first derivatives, UseDBF=F ICtDFT=           0.
 Integral derivatives from FoFJK, PRISM(SPDF).
 Calling FoFJK, ICntrl=      2127 FMM=F ISym2X=1 I1Cent= 0 IOpClX= 0 NMat=1 NMatS=1 NMatT=0.
 FoFJK:  IHMeth= 1 ICntrl=    2127 DoSepK=F KAlg= 0 I1Cent=   0 FoldK=F
 IRaf=         0 NMat=   1 IRICut=       1 DoRegI=T DoRafI=F ISym2E= 1.
 FoFCou: FMM=F IPFlag=           0 FMFlag=      100000 FMFlg1=         800
         NFxFlg=           0 DoJE=F BraDBF=F KetDBF=F FulRan=T
         wScrn=  0.000000 ICntrl=    2127 IOpCl=  0 I1Cent=           0 NGrid=           0
         NMat0=    1 NMatS0=      1 NMatT0=    0 NMatD0=    1 NMtDS0=    0 NMtDT0=    0
 Petite list used in FoFCou.
 Leave Link  703 at Thu Mar 19 18:45:50 2026, MaxMem=   536870912 cpu:         1.0
 (Enter C:\G09W\l716.exe)
 Dipole        =-8.88178420D-16 5.55111512D-16-8.06108472D-01
 ***** Axes restored to original set *****
 -------------------------------------------------------------------
 Center     Atomic                   Forces (Hartrees/Bohr)
 Number     Number              X              Y              Z
 -------------------------------------------------------------------
      1        6          -0.006006546   -0.000295365    0.000141327
      2       17           0.002281190    0.000112175   -0.000053674
      3        1           0.001244182   -0.000068215   -0.000197539
      4        1           0.001250375   -0.000019803    0.000166837
      5        1           0.001230799    0.000271209   -0.000056951
 -------------------------------------------------------------------
 Cartesian Forces:  Max     0.006006546 RMS     0.001754615
 Leave Link  716 at Thu Mar 19 18:45:50 2026, MaxMem=   536870912 cpu:         0.0
 (Enter C:\G09W\l103.exe)

 GradGradGradGradGradGradGradGradGradGradGradGradGradGradGradGradGradGrad
 Berny optimization.
 Using GEDIIS/GDIIS optimizer.
 FormGI is forming the generalized inverse of G from B-inverse, IUseBI=4.
 Internal  Forces:  Max     0.002284577 RMS     0.000819635
 Search for a local minimum.
 Step number   2 out of a maximum of   24
 All quantities printed in internal units (Hartrees-Bohrs-Radians)
 RMS Force = .81964D-03 SwitMx=.10000D-02 MixMth= 2
 Mixed Optimization -- En-DIIS/RFO-DIIS
 Update second derivatives using D2CorX and points    1    2
 DE= -4.10D-04 DEPred=-3.68D-04 R= 1.12D+00
 TightC=F SS=  1.41D+00  RLast= 5.09D-02 DXNew= 5.0454D-01 1.5261D-01
 Trust test= 1.12D+00 RLast= 5.09D-02 DXMaxT set to 3.00D-01
 The second derivative matrix:
                          R1        R2        R3        R4        A1
           R1           0.23831
           R2           0.00441   0.34529
           R3           0.00441  -0.00031   0.34529
           R4           0.00441  -0.00031  -0.00031   0.34529
           A1           0.00012   0.00005   0.00005   0.00005   0.16004
           A2           0.00403  -0.00013  -0.00013  -0.00013   0.00016
           A3           0.01436  -0.00059  -0.00059  -0.00059   0.00046
           A4           0.00406  -0.00023  -0.00023  -0.00023   0.00008
           A5          -0.01014   0.00040   0.00040   0.00040  -0.00033
           A6          -0.01225   0.00050   0.00050   0.00050  -0.00040
           D1          -0.01328   0.00059   0.00059   0.00059  -0.00039
           D2           0.01101  -0.00049  -0.00049  -0.00049   0.00032
           D3          -0.01451   0.00065   0.00065   0.00065  -0.00042
           D4          -0.02552   0.00114   0.00114   0.00114  -0.00075
                          A2        A3        A4        A5        A6
           A2           0.16034
           A3           0.00081   0.16174
           A4           0.00004  -0.00008   0.15987
           A5          -0.00061  -0.00135   0.00003   0.16105
           A6          -0.00071  -0.00154   0.00005   0.00120   0.16137
           D1          -0.00061  -0.00120   0.00015   0.00096   0.00108
           D2           0.00051   0.00100  -0.00012  -0.00079  -0.00089
           D3          -0.00067  -0.00131   0.00016   0.00104   0.00118
           D4          -0.00118  -0.00231   0.00028   0.00184   0.00207
                          D1        D2        D3        D4
           D1           0.00307
           D2          -0.00064   0.00283
           D3           0.00084  -0.00069   0.00321
           D4           0.00147  -0.00122   0.00161   0.00513
 ITU=  1  0
 Use linear search instead of GDIIS.
     Eigenvalues ---    0.05112   0.05761   0.08690   0.15771   0.16000
     Eigenvalues ---    0.24880   0.34521   0.34560   0.34560
 RFO step:  Lambda=-8.81220200D-05 EMin= 5.11176804D-02
 Quartic linear search produced a step of  0.16789.
 Iteration  1 RMS(Cart)=  0.00471935 RMS(Int)=  0.00007698
 Iteration  2 RMS(Cart)=  0.00004287 RMS(Int)=  0.00006292
 Iteration  3 RMS(Cart)=  0.00000000 RMS(Int)=  0.00006292
 ITry= 1 IFail=0 DXMaxC= 1.36D-02 DCOld= 1.00D+10 DXMaxT= 3.00D-01 DXLimC= 3.00D+00 Rises=F
 ClnCor:  largest displacement from symmetrization is 4.44D-04 for atom     5.
 Variable       Old X    -DE/DX   Delta X   Delta X   Delta X     New X
                                 (Linear)    (Quad)   (Total)
    R1        3.38906   0.00228   0.00839   0.00732   0.01571   3.40477
    R2        2.06177  -0.00021  -0.00037  -0.00062  -0.00096   2.06082
    R3        2.06177  -0.00021  -0.00037  -0.00062  -0.00096   2.06082
    R4        2.06177  -0.00021  -0.00037  -0.00062  -0.00096   2.06082
    A1        1.90594  -0.00028   0.00036  -0.00908  -0.00873   1.89721
    A2        1.90594  -0.00044   0.00036  -0.00921  -0.00873   1.89721
    A3        1.90594  -0.00086   0.00036  -0.00934  -0.00873   1.89721
    A4        1.91530   0.00011  -0.00035   0.00894   0.00856   1.92386
    A5        1.91530   0.00069  -0.00035   0.00921   0.00856   1.92386
    A6        1.91530   0.00077  -0.00035   0.00921   0.00856   1.92386
    D1       -2.08863   0.00055  -0.00044   0.01132   0.01086  -2.07776
    D2        2.08863  -0.00045   0.00044  -0.01124  -0.01086   2.07776
    D3       -2.08863   0.00060  -0.00044   0.01140   0.01086  -2.07776
    D4        2.10593   0.00105  -0.00089   0.02264   0.02173   2.12766
         Item               Value     Threshold  Converged?
 Maximum Force            0.002285     0.000450     NO 
 RMS     Force            0.000820     0.000300     NO 
 Maximum Displacement     0.013640     0.001800     NO 
 RMS     Displacement     0.004663     0.001200     NO 
 Predicted change in Energy=-5.224875D-05
 Lowest energy point so far.  Saving SCF results.
 GradGradGradGradGradGradGradGradGradGradGradGradGradGradGradGradGradGrad

 Leave Link  103 at Thu Mar 19 18:45:50 2026, MaxMem=   536870912 cpu:         0.0
 (Enter C:\G09W\l202.exe)
                          Input orientation:                          
 ---------------------------------------------------------------------
 Center     Atomic      Atomic             Coordinates (Angstroms)
 Number     Number       Type             X           Y           Z
 ---------------------------------------------------------------------
      1          6           0       -0.150364   -0.007394    0.003538
      2         17           0        1.648693    0.081072   -0.038792
      3          1           0       -0.487863   -0.653715   -0.807408
      4          1           0       -0.457725   -0.418114    0.965883
      5          1           0       -0.552993    0.998137   -0.123215
 ---------------------------------------------------------------------
                    Distance matrix (angstroms):
                    1          2          3          4          5
     1  C    0.000000
     2  Cl   1.801728   0.000000
     3  H    1.090537   2.386537   0.000000
     4  H    1.090537   2.386537   1.789128   0.000000
     5  H    1.090537   2.386537   1.789128   1.789128   0.000000
 Stoichiometry    CH3Cl
 Framework group  C3V[C3(CCl),3SGV(H)]
 Deg. of freedom     3
 Full point group                 C3V     NOp   6
 RotChk:  IX=0 Diff= 3.11D-16
 Largest Abelian subgroup         CS      NOp   2
 Largest concise Abelian subgroup CS      NOp   2
                         Standard orientation:                         
 ---------------------------------------------------------------------
 Center     Atomic      Atomic             Coordinates (Angstroms)
 Number     Number       Type             X           Y           Z
 ---------------------------------------------------------------------
      1          6           0        0.000000    0.000000   -1.137705
      2         17           0        0.000000    0.000000    0.664023
      3          1           0        0.000000    1.032953   -1.487387
      4          1           0        0.894564   -0.516477   -1.487387
      5          1           0       -0.894564   -0.516477   -1.487387
 ---------------------------------------------------------------------
 Rotational constants (GHZ):    156.6568758     13.0458161     13.0458161
 Leave Link  202 at Thu Mar 19 18:45:50 2026, MaxMem=   536870912 cpu:         0.0
 (Enter C:\G09W\l301.exe)
 Standard basis: 6-31G(d) (6D, 7F)
 Ernie: Thresh=  0.10000D-02 Tol=  0.10000D-05 Strict=F.
 There are    29 symmetry adapted cartesian basis functions of A'  symmetry.
 There are    11 symmetry adapted cartesian basis functions of A"  symmetry.
 There are    29 symmetry adapted basis functions of A'  symmetry.
 There are    11 symmetry adapted basis functions of A"  symmetry.
    40 basis functions,    92 primitive gaussians,    40 cartesian basis functions
    13 alpha electrons       13 beta electrons
       nuclear repulsion energy        50.8881293096 Hartrees.
 IExCor=  402 DFT=T Ex+Corr=B3LYP ExCW=0 ScaHFX=  0.200000
 ScaDFX=  0.800000  0.720000  1.000000  0.810000 ScalE2=  1.000000  1.000000
 IRadAn=      0 IRanWt=     -1 IRanGd=            0 ICorTp=0 IEmpDi=  4
 NAtoms=    5 NActive=    5 NUniq=    3 SFac= 2.78D+00 NAtFMM=   60 NAOKFM=F Big=F
 Integral buffers will be    131072 words long.
 Raffenetti 2 integral format.
 Two-electron integral symmetry is turned on.
 Leave Link  301 at Thu Mar 19 18:45:51 2026, MaxMem=   536870912 cpu:         0.0
 (Enter C:\G09W\l302.exe)
 NPDir=0 NMtPBC=     1 NCelOv=     1 NCel=       1 NClECP=     1 NCelD=      1
         NCelK=      1 NCelE2=     1 NClLst=     1 CellRange=     0.0.
 One-electron integrals computed using PRISM.
 One-electron integral symmetry used in STVInt
 NBasis=    40 RedAO= T EigKep=  2.16D-02  NBF=    29    11
 NBsUse=    40 1.00D-06 EigRej= -1.00D+00 NBFU=    29    11
 Precomputing XC quadrature grid using
 IXCGrd= 4 IRadAn=           0 IRanWt=          -1 IRanGd=           0 AccXCQ= 0.00D+00.
 Generated NRdTot=       0 NPtTot=           0 NUsed=           0 NTot=          32
 NSgBfM=    40    40    40    40    40 MxSgAt=     5 MxSgA2=     5.
 Leave Link  302 at Thu Mar 19 18:45:51 2026, MaxMem=   536870912 cpu:         0.0
 (Enter C:\G09W\l303.exe)
 DipDrv:  MaxL=1.
 Leave Link  303 at Thu Mar 19 18:45:51 2026, MaxMem=   536870912 cpu:         0.0
 (Enter C:\G09W\l401.exe)
 Initial guess from the checkpoint file:  "chloromethane_rdkit.chk"
 B after Tr=     0.000000    0.000000    0.000000
         Rot=    1.000000    0.000000    0.000000    0.000000 Ang=   0.00 deg.
 Guess basis will be translated and rotated to current coordinates.
 JPrj=2 DoOrth=T DoCkMO=T.
 Initial guess orbital symmetries:
       Occupied  (A1) (A1) (A1) (A1) (E) (E) (A1) (A1) (E) (E)
                 (A1) (E) (E)
       Virtual   (?A) (?A) (?A) (?A) (?A) (?A) (?A) (?A) (?A) (?A)
                 (?A) (?A) (?A) (?A) (?A) (?A) (?A) (?A) (?A) (?A)
                 (?A) (?A) (?A) (?A) (?A) (?A) (?A)
 The electronic state of the initial guess is 1-A1.
 Leave Link  401 at Thu Mar 19 18:45:51 2026, MaxMem=   536870912 cpu:         0.0
 (Enter C:\G09W\l502.exe)
 Closed shell SCF:
 Using DIIS extrapolation, IDIIS=  1040.
 Integral symmetry usage will be decided dynamically.
 Keep R1 ints in memory in symmetry-blocked form, NReq=1223342.
 IVT=       24014 IEndB=       24014 NGot=   536870912 MDV=   536667972
 LenX=   536667972 LenY=   536665931
 Requested convergence on RMS density matrix=1.00D-08 within 128 cycles.
 Requested convergence on MAX density matrix=1.00D-06.
 Requested convergence on             energy=1.00D-06.
 No special actions if energy rises.
 FoFCou: FMM=F IPFlag=           0 FMFlag=           0 FMFlg1=           0
         NFxFlg=           0 DoJE=F BraDBF=F KetDBF=F FulRan=T
         wScrn=  0.000000 ICntrl=     600 IOpCl=  0 I1Cent=           0 NGrid=           0
         NMat0=    1 NMatS0=    820 NMatT0=    0 NMatD0=    1 NMtDS0=    0 NMtDT0=    0
 Petite list used in FoFCou.

 Cycle   1  Pass 1  IDiag  1:
 E= -500.108497504786    
 DIIS: error= 5.63D-04 at cycle   1 NSaved=   1.
 NSaved= 1 IEnMin= 1 EnMin= -500.108497504786     IErMin= 1 ErrMin= 5.63D-04
 ErrMax= 5.63D-04  0.00D+00 EMaxC= 1.00D-01 BMatC= 1.58D-05 BMatP= 1.58D-05
 IDIUse=3 WtCom= 9.94D-01 WtEn= 5.63D-03
 Coeff-Com:  0.100D+01
 Coeff-En:   0.100D+01
 Coeff:      0.100D+01
 Gap=     0.825 Goal=   None    Shift=    0.000
 RMSDP=1.92D-04 MaxDP=1.74D-03              OVMax= 2.49D-03

 Cycle   2  Pass 1  IDiag  1:
 E= -500.108527324564     Delta-E=       -0.000029819778 Rises=F Damp=F
 DIIS: error= 1.13D-04 at cycle   2 NSaved=   2.
 NSaved= 2 IEnMin= 2 EnMin= -500.108527324564     IErMin= 2 ErrMin= 1.13D-04
 ErrMax= 1.13D-04  0.00D+00 EMaxC= 1.00D-01 BMatC= 6.59D-07 BMatP= 1.58D-05
 IDIUse=3 WtCom= 9.99D-01 WtEn= 1.13D-03
 Coeff-Com:  0.408D-01 0.959D+00
 Coeff-En:   0.000D+00 0.100D+01
 Coeff:      0.407D-01 0.959D+00
 Gap=     0.323 Goal=   None    Shift=    0.000
 RMSDP=4.57D-05 MaxDP=4.94D-04 DE=-2.98D-05 OVMax= 7.42D-04

 Cycle   3  Pass 1  IDiag  1:
 E= -500.108527344959     Delta-E=       -0.000000020394 Rises=F Damp=F
 DIIS: error= 1.23D-04 at cycle   3 NSaved=   3.
 NSaved= 3 IEnMin= 3 EnMin= -500.108527344959     IErMin= 2 ErrMin= 1.13D-04
 ErrMax= 1.23D-04  0.00D+00 EMaxC= 1.00D-01 BMatC= 7.52D-07 BMatP= 6.59D-07
 IDIUse=3 WtCom= 4.75D-01 WtEn= 5.25D-01
 Coeff-Com: -0.126D-01 0.522D+00 0.491D+00
 Coeff-En:   0.000D+00 0.493D+00 0.507D+00
 Coeff:     -0.597D-02 0.507D+00 0.499D+00
 Gap=     0.323 Goal=   None    Shift=    0.000
 RMSDP=2.47D-05 MaxDP=3.05D-04 DE=-2.04D-08 OVMax= 4.44D-04

 Cycle   4  Pass 1  IDiag  1:
 E= -500.108528133171     Delta-E=       -0.000000788212 Rises=F Damp=F
 DIIS: error= 2.21D-05 at cycle   4 NSaved=   4.
 NSaved= 4 IEnMin= 4 EnMin= -500.108528133171     IErMin= 4 ErrMin= 2.21D-05
 ErrMax= 2.21D-05  0.00D+00 EMaxC= 1.00D-01 BMatC= 2.47D-08 BMatP= 6.59D-07
 IDIUse=1 WtCom= 1.00D+00 WtEn= 0.00D+00
 Coeff-Com: -0.874D-02 0.110D+00 0.199D+00 0.700D+00
 Coeff:     -0.874D-02 0.110D+00 0.199D+00 0.700D+00
 Gap=     0.323 Goal=   None    Shift=    0.000
 RMSDP=3.50D-06 MaxDP=4.60D-05 DE=-7.88D-07 OVMax= 4.24D-05

 Cycle   5  Pass 1  IDiag  1:
 E= -500.108528156926     Delta-E=       -0.000000023756 Rises=F Damp=F
 DIIS: error= 1.86D-06 at cycle   5 NSaved=   5.
 NSaved= 5 IEnMin= 5 EnMin= -500.108528156926     IErMin= 5 ErrMin= 1.86D-06
 ErrMax= 1.86D-06  0.00D+00 EMaxC= 1.00D-01 BMatC= 2.17D-10 BMatP= 2.47D-08
 IDIUse=1 WtCom= 1.00D+00 WtEn= 0.00D+00
 Coeff-Com: -0.202D-02 0.162D-01 0.405D-01 0.172D+00 0.774D+00
 Coeff:     -0.202D-02 0.162D-01 0.405D-01 0.172D+00 0.774D+00
 Gap=     0.323 Goal=   None    Shift=    0.000
 RMSDP=4.48D-07 MaxDP=4.95D-06 DE=-2.38D-08 OVMax= 5.09D-06

 Cycle   6  Pass 1  IDiag  1:
 E= -500.108528157130     Delta-E=       -0.000000000204 Rises=F Damp=F
 DIIS: error= 5.79D-07 at cycle   6 NSaved=   6.
 NSaved= 6 IEnMin= 6 EnMin= -500.108528157130     IErMin= 6 ErrMin= 5.79D-07
 ErrMax= 5.79D-07  0.00D+00 EMaxC= 1.00D-01 BMatC= 1.44D-11 BMatP= 2.17D-10
 IDIUse=1 WtCom= 1.00D+00 WtEn= 0.00D+00
 Coeff-Com: -0.719D-04-0.117D-02 0.124D-02 0.929D-02 0.221D+00 0.770D+00
 Coeff:     -0.719D-04-0.117D-02 0.124D-02 0.929D-02 0.221D+00 0.770D+00
 Gap=     0.323 Goal=   None    Shift=    0.000
 RMSDP=1.14D-07 MaxDP=1.49D-06 DE=-2.04D-10 OVMax= 1.22D-06

 Cycle   7  Pass 1  IDiag  1:
 E= -500.108528157145     Delta-E=       -0.000000000015 Rises=F Damp=F
 DIIS: error= 8.94D-08 at cycle   7 NSaved=   7.
 NSaved= 7 IEnMin= 7 EnMin= -500.108528157145     IErMin= 7 ErrMin= 8.94D-08
 ErrMax= 8.94D-08  0.00D+00 EMaxC= 1.00D-01 BMatC= 5.07D-13 BMatP= 1.44D-11
 IDIUse=1 WtCom= 1.00D+00 WtEn= 0.00D+00
 Coeff-Com:  0.802D-05-0.779D-03-0.966D-04 0.146D-02 0.795D-01 0.308D+00
 Coeff-Com:  0.612D+00
 Coeff:      0.802D-05-0.779D-03-0.966D-04 0.146D-02 0.795D-01 0.308D+00
 Coeff:      0.612D+00
 Gap=     0.323 Goal=   None    Shift=    0.000
 RMSDP=2.91D-08 MaxDP=4.70D-07 DE=-1.55D-11 OVMax= 2.55D-07

 Cycle   8  Pass 1  IDiag  1:
 E= -500.108528157145     Delta-E=        0.000000000000 Rises=F Damp=F
 DIIS: error= 1.02D-08 at cycle   8 NSaved=   8.
 NSaved= 8 IEnMin= 7 EnMin= -500.108528157145     IErMin= 8 ErrMin= 1.02D-08
 ErrMax= 1.02D-08  0.00D+00 EMaxC= 1.00D-01 BMatC= 5.87D-15 BMatP= 5.07D-13
 IDIUse=1 WtCom= 1.00D+00 WtEn= 0.00D+00
 Coeff-Com:  0.337D-05-0.190D-04-0.434D-04-0.249D-03-0.405D-02-0.165D-01
 Coeff-Com:  0.693D-01 0.952D+00
 Coeff:      0.337D-05-0.190D-04-0.434D-04-0.249D-03-0.405D-02-0.165D-01
 Coeff:      0.693D-01 0.952D+00
 Gap=     0.323 Goal=   None    Shift=    0.000
 RMSDP=3.20D-09 MaxDP=4.39D-08 DE= 3.41D-13 OVMax= 2.98D-08

 SCF Done:  E(RB3LYP) =  -500.108528157     A.U. after    8 cycles
            NFock=  8  Conv=0.32D-08     -V/T= 2.0037
 KE= 4.982811576063D+02 PE=-1.287713887761D+03 EE= 2.384360726883D+02
 Leave Link  502 at Thu Mar 19 18:45:52 2026, MaxMem=   536870912 cpu:         0.0
 (Enter C:\G09W\l701.exe)
 Compute integral first derivatives.
 ... and contract with generalized density number  0.
 Leave Link  701 at Thu Mar 19 18:45:53 2026, MaxMem=   536870912 cpu:         0.0
 (Enter C:\G09W\l702.exe)
 L702 exits ... SP integral derivatives will be done elsewhere.
 Leave Link  702 at Thu Mar 19 18:45:53 2026, MaxMem=   536870912 cpu:         0.0
 (Enter C:\G09W\l703.exe)
 Compute integral first derivatives, UseDBF=F ICtDFT=           0.
 Integral derivatives from FoFJK, PRISM(SPDF).
 Calling FoFJK, ICntrl=      2127 FMM=F ISym2X=1 I1Cent= 0 IOpClX= 0 NMat=1 NMatS=1 NMatT=0.
 FoFJK:  IHMeth= 1 ICntrl=    2127 DoSepK=F KAlg= 0 I1Cent=   0 FoldK=F
 IRaf=         0 NMat=   1 IRICut=       1 DoRegI=T DoRafI=F ISym2E= 1.
 FoFCou: FMM=F IPFlag=           0 FMFlag=      100000 FMFlg1=         800
         NFxFlg=           0 DoJE=F BraDBF=F KetDBF=F FulRan=T
         wScrn=  0.000000 ICntrl=    2127 IOpCl=  0 I1Cent=           0 NGrid=           0
         NMat0=    1 NMatS0=      1 NMatT0=    0 NMatD0=    1 NMtDS0=    0 NMtDT0=    0
 Petite list used in FoFCou.
 Leave Link  703 at Thu Mar 19 18:45:53 2026, MaxMem=   536870912 cpu:         0.0
 (Enter C:\G09W\l716.exe)
 Dipole        =-6.66133815D-16 2.22044605D-16-8.16825516D-01
 ***** Axes restored to original set *****
 -------------------------------------------------------------------
 Center     Atomic                   Forces (Hartrees/Bohr)
 Number     Number              X              Y              Z
 -------------------------------------------------------------------
      1        6          -0.001433745   -0.000070503    0.000033734
      2       17           0.000170600    0.000008389   -0.000004014
      3        1           0.000420774    0.000035503    0.000009361
      4        1           0.000420065    0.000029961   -0.000032349
      5        1           0.000422306   -0.000003351   -0.000006732
 -------------------------------------------------------------------
 Cartesian Forces:  Max     0.001433745 RMS     0.000418419
 Leave Link  716 at Thu Mar 19 18:45:54 2026, MaxMem=   536870912 cpu:         0.0
 (Enter C:\G09W\l103.exe)

 GradGradGradGradGradGradGradGradGradGradGradGradGradGradGradGradGradGrad
 Berny optimization.
 Using GEDIIS/GDIIS optimizer.
 FormGI is forming the generalized inverse of G from B-inverse, IUseBI=4.
 Internal  Forces:  Max     0.000333239 RMS     0.000189010
 Search for a local minimum.
 Step number   3 out of a maximum of   24
 All quantities printed in internal units (Hartrees-Bohrs-Radians)
 RMS Force = .18901D-03 SwitMx=.10000D-02 MixMth= 2
 Mixed Optimization -- En-DIIS/RFO-DIIS
 Swapping is turned off.
 Update second derivatives using D2CorX and points    1    2    3
 DE= -6.38D-05 DEPred=-5.22D-05 R= 1.22D+00
 TightC=F SS=  1.41D+00  RLast= 3.90D-02 DXNew= 5.0454D-01 1.1713D-01
 Trust test= 1.22D+00 RLast= 3.90D-02 DXMaxT set to 3.00D-01
 The second derivative matrix:
                          R1        R2        R3        R4        A1
           R1           0.24556
           R2           0.00891   0.34484
           R3           0.00891  -0.00076   0.34484
           R4           0.00891  -0.00076  -0.00076   0.34484
           A1           0.04014  -0.00276  -0.00276  -0.00276   0.14505
           A2           0.03892  -0.00274  -0.00274  -0.00274  -0.01427
           A3           0.03571  -0.00268  -0.00268  -0.00268  -0.01247
           A4          -0.04048   0.00273   0.00273   0.00273   0.01538
           A5          -0.03608   0.00265   0.00265   0.00265   0.01292
           A6          -0.03541   0.00263   0.00263   0.00263   0.01255
           D1           0.00339  -0.00003  -0.00003  -0.00003  -0.00204
           D2          -0.00260   0.00001   0.00001   0.00001   0.00164
           D3           0.00367  -0.00003  -0.00003  -0.00003  -0.00225
           D4           0.00627  -0.00004  -0.00004  -0.00004  -0.00389
                          A2        A3        A4        A5        A6
           A2           0.14658
           A3          -0.01119   0.15221
           A4           0.01489   0.01358   0.14438
           A5           0.01182   0.00892  -0.01382   0.15017
           A6           0.01136   0.00822  -0.01356  -0.00924   0.15141
           D1          -0.00261  -0.00414   0.00140   0.00350   0.00381
           D2           0.00212   0.00338  -0.00112  -0.00285  -0.00311
           D3          -0.00288  -0.00453   0.00156   0.00384   0.00418
           D4          -0.00500  -0.00791   0.00268   0.00669   0.00729
                          D1        D2        D3        D4
           D1           0.00429
           D2          -0.00165   0.00366
           D3           0.00216  -0.00179   0.00465
           D4           0.00381  -0.00315   0.00414   0.00959
 ITU=  1  1  0
     Eigenvalues ---    0.04263   0.05417   0.08774   0.15475   0.16000
     Eigenvalues ---    0.25926   0.34560   0.34560   0.34571
 En-DIIS/RFO-DIIS IScMMF=        0 using points:     3    2
 RFO step:  Lambda=-1.99270948D-06.
 NNeg= 0 NP= 2 Switch=  2.50D-03 Rises=F DC=  6.38D-05 SmlDif=  1.00D-05
 RMS Error=  0.7878825897D-03 NUsed= 2 EDIIS=F
 DidBck=F Rises=F RFO-DIIS coefs:    1.30459   -0.30459
 Iteration  1 RMS(Cart)=  0.00168551 RMS(Int)=  0.00002733
 Iteration  2 RMS(Cart)=  0.00000574 RMS(Int)=  0.00002669
 Iteration  3 RMS(Cart)=  0.00000000 RMS(Int)=  0.00002669
 ITry= 1 IFail=0 DXMaxC= 4.56D-03 DCOld= 1.00D+10 DXMaxT= 3.00D-01 DXLimC= 3.00D+00 Rises=F
 ClnCor:  largest displacement from symmetrization is 3.64D-05 for atom     5.
 Variable       Old X    -DE/DX   Delta X   Delta X   Delta X     New X
                                 (Linear)    (Quad)   (Total)
    R1        3.40477   0.00017   0.00479  -0.00144   0.00335   3.40812
    R2        2.06082  -0.00016  -0.00029  -0.00040  -0.00069   2.06013
    R3        2.06082  -0.00016  -0.00029  -0.00040  -0.00069   2.06013
    R4        2.06082  -0.00016  -0.00029  -0.00040  -0.00069   2.06013
    A1        1.89721  -0.00009  -0.00266  -0.00055  -0.00320   1.89401
    A2        1.89721  -0.00014  -0.00266  -0.00056  -0.00320   1.89401
    A3        1.89721  -0.00027  -0.00266  -0.00056  -0.00320   1.89401
    A4        1.92386   0.00003   0.00261   0.00055   0.00310   1.92696
    A5        1.92386   0.00021   0.00261   0.00054   0.00310   1.92696
    A6        1.92386   0.00024   0.00261   0.00054   0.00310   1.92696
    D1       -2.07776   0.00017   0.00331   0.00069   0.00402  -2.07374
    D2        2.07776  -0.00014  -0.00331  -0.00070  -0.00402   2.07374
    D3       -2.07776   0.00019   0.00331   0.00071   0.00402  -2.07374
    D4        2.12766   0.00033   0.00662   0.00141   0.00805   2.13571
         Item               Value     Threshold  Converged?
 Maximum Force            0.000333     0.000450     YES
 RMS     Force            0.000189     0.000300     YES
 Maximum Displacement     0.004556     0.001800     NO 
 RMS     Displacement     0.001680     0.001200     NO 
 Predicted change in Energy=-4.350401D-06
 Lowest energy point so far.  Saving SCF results.
 GradGradGradGradGradGradGradGradGradGradGradGradGradGradGradGradGradGrad

 Leave Link  103 at Thu Mar 19 18:45:54 2026, MaxMem=   536870912 cpu:         0.0
 (Enter C:\G09W\l202.exe)
                          Input orientation:                          
 ---------------------------------------------------------------------
 Center     Atomic      Atomic             Coordinates (Angstroms)
 Number     Number       Type             X           Y           Z
 ---------------------------------------------------------------------
      1          6           0       -0.152774   -0.007513    0.003595
      2         17           0        1.648053    0.081041   -0.038776
      3          1           0       -0.486846   -0.654133   -0.808041
      4          1           0       -0.456686   -0.418357    0.966568
      5          1           0       -0.552024    0.998947   -0.123339
 ---------------------------------------------------------------------
                    Distance matrix (angstroms):
                    1          2          3          4          5
     1  C    0.000000
     2  Cl   1.803501   0.000000
     3  H    1.090171   2.385381   0.000000
     4  H    1.090171   2.385381   1.790457   0.000000
     5  H    1.090171   2.385381   1.790457   1.790457   0.000000
 Stoichiometry    CH3Cl
 Framework group  C3V[C3(CCl),3SGV(H)]
 Deg. of freedom     3
 Full point group                 C3V     NOp   6
 RotChk:  IX=0 Diff= 6.74D-16
 Largest Abelian subgroup         CS      NOp   2
 Largest concise Abelian subgroup CS      NOp   2
                         Standard orientation:                         
 ---------------------------------------------------------------------
 Center     Atomic      Atomic             Coordinates (Angstroms)
 Number     Number       Type             X           Y           Z
 ---------------------------------------------------------------------
      1          6           0        0.000000    0.000000   -1.139259
      2         17           0        0.000000    0.000000    0.664242
      3          1           0        0.000000    1.033721   -1.485517
      4          1           0        0.895229   -0.516860   -1.485517
      5          1           0       -0.895229   -0.516860   -1.485517
 ---------------------------------------------------------------------
 Rotational constants (GHZ):    156.4243121     13.0325942     13.0325942
 Leave Link  202 at Thu Mar 19 18:45:54 2026, MaxMem=   536870912 cpu:         0.0
 (Enter C:\G09W\l301.exe)
 Standard basis: 6-31G(d) (6D, 7F)
 Ernie: Thresh=  0.10000D-02 Tol=  0.10000D-05 Strict=F.
 There are    29 symmetry adapted cartesian basis functions of A'  symmetry.
 There are    11 symmetry adapted cartesian basis functions of A"  symmetry.
 There are    29 symmetry adapted basis functions of A'  symmetry.
 There are    11 symmetry adapted basis functions of A"  symmetry.
    40 basis functions,    92 primitive gaussians,    40 cartesian basis functions
    13 alpha electrons       13 beta electrons
       nuclear repulsion energy        50.8664263047 Hartrees.
 IExCor=  402 DFT=T Ex+Corr=B3LYP ExCW=0 ScaHFX=  0.200000
 ScaDFX=  0.800000  0.720000  1.000000  0.810000 ScalE2=  1.000000  1.000000
 IRadAn=      0 IRanWt=     -1 IRanGd=            0 ICorTp=0 IEmpDi=  4
 NAtoms=    5 NActive=    5 NUniq=    3 SFac= 2.78D+00 NAtFMM=   60 NAOKFM=F Big=F
 Integral buffers will be    131072 words long.
 Raffenetti 2 integral format.
 Two-electron integral symmetry is turned on.
 Leave Link  301 at Thu Mar 19 18:45:54 2026, MaxMem=   536870912 cpu:         0.0
 (Enter C:\G09W\l302.exe)
 NPDir=0 NMtPBC=     1 NCelOv=     1 NCel=       1 NClECP=     1 NCelD=      1
         NCelK=      1 NCelE2=     1 NClLst=     1 CellRange=     0.0.
 One-electron integrals computed using PRISM.
 One-electron integral symmetry used in STVInt
 NBasis=    40 RedAO= T EigKep=  2.16D-02  NBF=    29    11
 NBsUse=    40 1.00D-06 EigRej= -1.00D+00 NBFU=    29    11
 Precomputing XC quadrature grid using
 IXCGrd= 4 IRadAn=           0 IRanWt=          -1 IRanGd=           0 AccXCQ= 0.00D+00.
 Generated NRdTot=       0 NPtTot=           0 NUsed=           0 NTot=          32
 NSgBfM=    40    40    40    40    40 MxSgAt=     5 MxSgA2=     5.
 Leave Link  302 at Thu Mar 19 18:45:55 2026, MaxMem=   536870912 cpu:         1.0
 (Enter C:\G09W\l303.exe)
 DipDrv:  MaxL=1.
 Leave Link  303 at Thu Mar 19 18:45:55 2026, MaxMem=   536870912 cpu:         0.0
 (Enter C:\G09W\l401.exe)
 Initial guess from the checkpoint file:  "chloromethane_rdkit.chk"
 B after Tr=     0.000000    0.000000    0.000000
         Rot=    1.000000    0.000000    0.000000    0.000000 Ang=   0.00 deg.
 Guess basis will be translated and rotated to current coordinates.
 JPrj=2 DoOrth=T DoCkMO=T.
 Initial guess orbital symmetries:
       Occupied  (A1) (A1) (A1) (A1) (E) (E) (A1) (A1) (E) (E)
                 (A1) (E) (E)
       Virtual   (?A) (?A) (?A) (?A) (?A) (?A) (?A) (?A) (?A) (?A)
                 (?A) (?A) (?A) (?A) (?A) (?A) (?A) (?A) (?A) (?A)
                 (?A) (?A) (?A) (?A) (?A) (?A) (?A)
 The electronic state of the initial guess is 1-A1.
 Leave Link  401 at Thu Mar 19 18:45:55 2026, MaxMem=   536870912 cpu:         0.0
 (Enter C:\G09W\l502.exe)
 Closed shell SCF:
 Using DIIS extrapolation, IDIIS=  1040.
 Integral symmetry usage will be decided dynamically.
 Keep R1 ints in memory in symmetry-blocked form, NReq=1223342.
 IVT=       24014 IEndB=       24014 NGot=   536870912 MDV=   536667972
 LenX=   536667972 LenY=   536665931
 Requested convergence on RMS density matrix=1.00D-08 within 128 cycles.
 Requested convergence on MAX density matrix=1.00D-06.
 Requested convergence on             energy=1.00D-06.
 No special actions if energy rises.
 FoFCou: FMM=F IPFlag=           0 FMFlag=           0 FMFlg1=           0
         NFxFlg=           0 DoJE=F BraDBF=F KetDBF=F FulRan=T
         wScrn=  0.000000 ICntrl=     600 IOpCl=  0 I1Cent=           0 NGrid=           0
         NMat0=    1 NMatS0=    820 NMatT0=    0 NMatD0=    1 NMtDS0=    0 NMtDT0=    0
 Petite list used in FoFCou.

 Cycle   1  Pass 1  IDiag  1:
 E= -500.108529980658    
 DIIS: error= 2.02D-04 at cycle   1 NSaved=   1.
 NSaved= 1 IEnMin= 1 EnMin= -500.108529980658     IErMin= 1 ErrMin= 2.02D-04
 ErrMax= 2.02D-04  0.00D+00 EMaxC= 1.00D-01 BMatC= 1.47D-06 BMatP= 1.47D-06
 IDIUse=3 WtCom= 9.98D-01 WtEn= 2.02D-03
 Coeff-Com:  0.100D+01
 Coeff-En:   0.100D+01
 Coeff:      0.100D+01
 Gap=     0.825 Goal=   None    Shift=    0.000
 RMSDP=5.34D-05 MaxDP=4.82D-04              OVMax= 6.40D-04

 Cycle   2  Pass 1  IDiag  1:
 E= -500.108532615531     Delta-E=       -0.000002634873 Rises=F Damp=F
 DIIS: error= 3.65D-05 at cycle   2 NSaved=   2.
 NSaved= 2 IEnMin= 2 EnMin= -500.108532615531     IErMin= 2 ErrMin= 3.65D-05
 ErrMax= 3.65D-05  0.00D+00 EMaxC= 1.00D-01 BMatC= 3.87D-08 BMatP= 1.47D-06
 IDIUse=1 WtCom= 1.00D+00 WtEn= 0.00D+00
 Coeff-Com:  0.406D-01 0.959D+00
 Coeff:      0.406D-01 0.959D+00
 Gap=     0.322 Goal=   None    Shift=    0.000
 RMSDP=8.21D-06 MaxDP=7.94D-05 DE=-2.63D-06 OVMax= 9.20D-05

 Cycle   3  Pass 1  IDiag  1:
 E= -500.108532655685     Delta-E=       -0.000000040154 Rises=F Damp=F
 DIIS: error= 1.31D-05 at cycle   3 NSaved=   3.
 NSaved= 3 IEnMin= 3 EnMin= -500.108532655685     IErMin= 3 ErrMin= 1.31D-05
 ErrMax= 1.31D-05  0.00D+00 EMaxC= 1.00D-01 BMatC= 7.19D-09 BMatP= 3.87D-08
 IDIUse=1 WtCom= 1.00D+00 WtEn= 0.00D+00
 Coeff-Com: -0.105D-01 0.268D+00 0.742D+00
 Coeff:     -0.105D-01 0.268D+00 0.742D+00
 Gap=     0.322 Goal=   None    Shift=    0.000
 RMSDP=2.44D-06 MaxDP=3.34D-05 DE=-4.02D-08 OVMax= 3.40D-05

 Cycle   4  Pass 1  IDiag  1:
 E= -500.108532661241     Delta-E=       -0.000000005556 Rises=F Damp=F
 DIIS: error= 7.24D-06 at cycle   4 NSaved=   4.
 NSaved= 4 IEnMin= 4 EnMin= -500.108532661241     IErMin= 4 ErrMin= 7.24D-06
 ErrMax= 7.24D-06  0.00D+00 EMaxC= 1.00D-01 BMatC= 1.69D-09 BMatP= 7.19D-09
 IDIUse=1 WtCom= 1.00D+00 WtEn= 0.00D+00
 Coeff-Com: -0.748D-02 0.877D-01 0.383D+00 0.537D+00
 Coeff:     -0.748D-02 0.877D-01 0.383D+00 0.537D+00
 Gap=     0.322 Goal=   None    Shift=    0.000
 RMSDP=1.03D-06 MaxDP=1.13D-05 DE=-5.56D-09 OVMax= 1.85D-05

 Cycle   5  Pass 1  IDiag  1:
 E= -500.108532662926     Delta-E=       -0.000000001685 Rises=F Damp=F
 DIIS: error= 8.84D-07 at cycle   5 NSaved=   5.
 NSaved= 5 IEnMin= 5 EnMin= -500.108532662926     IErMin= 5 ErrMin= 8.84D-07
 ErrMax= 8.84D-07  0.00D+00 EMaxC= 1.00D-01 BMatC= 5.42D-11 BMatP= 1.69D-09
 IDIUse=1 WtCom= 1.00D+00 WtEn= 0.00D+00
 Coeff-Com: -0.268D-02 0.230D-01 0.114D+00 0.225D+00 0.640D+00
 Coeff:     -0.268D-02 0.230D-01 0.114D+00 0.225D+00 0.640D+00
 Gap=     0.322 Goal=   None    Shift=    0.000
 RMSDP=2.93D-07 MaxDP=3.93D-06 DE=-1.69D-09 OVMax= 4.09D-06

 Cycle   6  Pass 1  IDiag  1:
 E= -500.108532662985     Delta-E=       -0.000000000059 Rises=F Damp=F
 DIIS: error= 2.03D-07 at cycle   6 NSaved=   6.
 NSaved= 6 IEnMin= 6 EnMin= -500.108532662985     IErMin= 6 ErrMin= 2.03D-07
 ErrMax= 2.03D-07  0.00D+00 EMaxC= 1.00D-01 BMatC= 2.54D-12 BMatP= 5.42D-11
 IDIUse=1 WtCom= 1.00D+00 WtEn= 0.00D+00
 Coeff-Com: -0.151D-03-0.699D-03 0.259D-02 0.290D-01 0.217D+00 0.752D+00
 Coeff:     -0.151D-03-0.699D-03 0.259D-02 0.290D-01 0.217D+00 0.752D+00
 Gap=     0.322 Goal=   None    Shift=    0.000
 RMSDP=6.59D-08 MaxDP=1.16D-06 DE=-5.95D-11 OVMax= 7.11D-07

 Cycle   7  Pass 1  IDiag  1:
 E= -500.108532662988     Delta-E=       -0.000000000003 Rises=F Damp=F
 DIIS: error= 3.53D-08 at cycle   7 NSaved=   7.
 NSaved= 7 IEnMin= 7 EnMin= -500.108532662988     IErMin= 7 ErrMin= 3.53D-08
 ErrMax= 3.53D-08  0.00D+00 EMaxC= 1.00D-01 BMatC= 8.59D-14 BMatP= 2.54D-12
 IDIUse=1 WtCom= 1.00D+00 WtEn= 0.00D+00
 Coeff-Com:  0.706D-05-0.747D-03-0.141D-02 0.669D-02 0.713D-01 0.297D+00
 Coeff-Com:  0.627D+00
 Coeff:      0.706D-05-0.747D-03-0.141D-02 0.669D-02 0.713D-01 0.297D+00
 Coeff:      0.627D+00
 Gap=     0.322 Goal=   None    Shift=    0.000
 RMSDP=8.13D-09 MaxDP=1.07D-07 DE=-3.18D-12 OVMax= 6.63D-08

 SCF Done:  E(RB3LYP) =  -500.108532663     A.U. after    7 cycles
            NFock=  7  Conv=0.81D-08     -V/T= 2.0037
 KE= 4.982813342848D+02 PE=-1.287673436485D+03 EE= 2.384171432321D+02
 Leave Link  502 at Thu Mar 19 18:45:56 2026, MaxMem=   536870912 cpu:         0.0
 (Enter C:\G09W\l701.exe)
 Compute integral first derivatives.
 ... and contract with generalized density number  0.
 Leave Link  701 at Thu Mar 19 18:45:57 2026, MaxMem=   536870912 cpu:         0.0
 (Enter C:\G09W\l702.exe)
 L702 exits ... SP integral derivatives will be done elsewhere.
 Leave Link  702 at Thu Mar 19 18:45:57 2026, MaxMem=   536870912 cpu:         0.0
 (Enter C:\G09W\l703.exe)
 Compute integral first derivatives, UseDBF=F ICtDFT=           0.
 Integral derivatives from FoFJK, PRISM(SPDF).
 Calling FoFJK, ICntrl=      2127 FMM=F ISym2X=1 I1Cent= 0 IOpClX= 0 NMat=1 NMatS=1 NMatT=0.
 FoFJK:  IHMeth= 1 ICntrl=    2127 DoSepK=F KAlg= 0 I1Cent=   0 FoldK=F
 IRaf=         0 NMat=   1 IRICut=       1 DoRegI=T DoRafI=F ISym2E= 1.
 FoFCou: FMM=F IPFlag=           0 FMFlag=      100000 FMFlg1=         800
         NFxFlg=           0 DoJE=F BraDBF=F KetDBF=F FulRan=T
         wScrn=  0.000000 ICntrl=    2127 IOpCl=  0 I1Cent=           0 NGrid=           0
         NMat0=    1 NMatS0=      1 NMatT0=    0 NMatD0=    1 NMtDS0=    0 NMtDT0=    0
 Petite list used in FoFCou.
 Leave Link  703 at Thu Mar 19 18:45:57 2026, MaxMem=   536870912 cpu:         0.0
 (Enter C:\G09W\l716.exe)
 Dipole        =-6.66133815D-16 1.11022302D-16-8.19632667D-01
 ***** Axes restored to original set *****
 -------------------------------------------------------------------
 Center     Atomic                   Forces (Hartrees/Bohr)
 Number     Number              X              Y              Z
 -------------------------------------------------------------------
      1        6          -0.000028594   -0.000001406    0.000000673
      2       17          -0.000052789   -0.000002596    0.000001242
      3        1           0.000027181   -0.000001516   -0.000004349
      4        1           0.000027317   -0.000000449    0.000003683
      5        1           0.000026886    0.000005966   -0.000001250
 -------------------------------------------------------------------
 Cartesian Forces:  Max     0.000052789 RMS     0.000019824
 Leave Link  716 at Thu Mar 19 18:45:57 2026, MaxMem=   536870912 cpu:         0.0
 (Enter C:\G09W\l103.exe)

 GradGradGradGradGradGradGradGradGradGradGradGradGradGradGradGradGradGrad
 Berny optimization.
 Using GEDIIS/GDIIS optimizer.
 FormGI is forming the generalized inverse of G from B-inverse, IUseBI=4.
 Internal  Forces:  Max     0.000052868 RMS     0.000018425
 Search for a local minimum.
 Step number   4 out of a maximum of   24
 All quantities printed in internal units (Hartrees-Bohrs-Radians)
 RMS Force = .18425D-04 SwitMx=.10000D-02 MixMth= 2
 Mixed Optimization -- En-DIIS/RFO-DIIS
 Swapping is turned off.
 Update second derivatives using D2CorX and points    1    2    3    4
 DE= -4.51D-06 DEPred=-4.35D-06 R= 1.04D+00
 TightC=F SS=  1.41D+00  RLast= 1.36D-02 DXNew= 5.0454D-01 4.0864D-02
 Trust test= 1.04D+00 RLast= 1.36D-02 DXMaxT set to 3.00D-01
 The second derivative matrix:
                          R1        R2        R3        R4        A1
           R1           0.23408
           R2           0.00680   0.34502
           R3           0.00680  -0.00058   0.34502
           R4           0.00680  -0.00058  -0.00058   0.34502
           A1           0.02257  -0.00337  -0.00337  -0.00337   0.13720
           A2           0.02354  -0.00335  -0.00335  -0.00335  -0.02208
           A3           0.02608  -0.00330  -0.00330  -0.00330  -0.02016
           A4          -0.02088   0.00328   0.00328   0.00328   0.02307
           A5          -0.02437   0.00320   0.00320   0.00320   0.02044
           A6          -0.02491   0.00320   0.00320   0.00320   0.02005
           D1          -0.00366  -0.00002  -0.00002  -0.00002  -0.00206
           D2           0.00303   0.00005   0.00005   0.00005   0.00165
           D3          -0.00388  -0.00007  -0.00007  -0.00007  -0.00230
           D4          -0.00691  -0.00011  -0.00011  -0.00011  -0.00395
                          A2        A3        A4        A5        A6
           A2           0.13893
           A3          -0.01839   0.14631
           A4           0.02265   0.02153   0.13696
           A5           0.01897   0.01507  -0.02150   0.14385
           A6           0.01842   0.01412  -0.02128  -0.01536   0.14552
           D1          -0.00305  -0.00568   0.00102   0.00465   0.00518
           D2           0.00249   0.00470  -0.00078  -0.00383  -0.00427
           D3          -0.00340  -0.00630   0.00116   0.00515   0.00574
           D4          -0.00588  -0.01100   0.00194   0.00898   0.01001
                          D1        D2        D3        D4
           D1           0.00573
           D2          -0.00288   0.00472
           D3           0.00378  -0.00317   0.00646
           D4           0.00666  -0.00559   0.00733   0.01523
 ITU=  1  1  1  0
     Eigenvalues ---    0.04094   0.05425   0.08808   0.15461   0.16000
     Eigenvalues ---    0.24624   0.34518   0.34560   0.34560
 En-DIIS/RFO-DIIS IScMMF=        0 using points:     4    3    2
 RFO step:  Lambda=-1.17123186D-08.
 NNeg= 0 NP= 3 Switch=  2.50D-03 Rises=F DC=  6.38D-05 SmlDif=  1.00D-05
 RMS Error=  0.4940630004D-04 NUsed= 3 EDIIS=F
 DidBck=F Rises=F RFO-DIIS coefs:    1.15378   -0.19112    0.03735
 Iteration  1 RMS(Cart)=  0.00013007 RMS(Int)=  0.00000264
 Iteration  2 RMS(Cart)=  0.00000002 RMS(Int)=  0.00000264
 ITry= 1 IFail=0 DXMaxC= 2.96D-04 DCOld= 1.00D+10 DXMaxT= 3.00D-01 DXLimC= 3.00D+00 Rises=F
 ClnCor:  largest displacement from symmetrization is 1.70D-06 for atom     5.
 Variable       Old X    -DE/DX   Delta X   Delta X   Delta X     New X
                                 (Linear)    (Quad)   (Total)
    R1        3.40812  -0.00005  -0.00007  -0.00003  -0.00010   3.40802
    R2        2.06013   0.00000  -0.00007   0.00005  -0.00002   2.06011
    R3        2.06013   0.00000  -0.00007   0.00005  -0.00002   2.06011
    R4        2.06013   0.00000  -0.00007   0.00005  -0.00002   2.06011
    A1        1.89401  -0.00001  -0.00017  -0.00001  -0.00018   1.89383
    A2        1.89401  -0.00001  -0.00017  -0.00001  -0.00018   1.89383
    A3        1.89401  -0.00002  -0.00017  -0.00001  -0.00018   1.89383
    A4        1.92696   0.00000   0.00016   0.00001   0.00017   1.92713
    A5        1.92696   0.00001   0.00016   0.00001   0.00017   1.92713
    A6        1.92696   0.00002   0.00016   0.00001   0.00017   1.92713
    D1       -2.07374   0.00001   0.00021   0.00002   0.00023  -2.07351
    D2        2.07374  -0.00001  -0.00021  -0.00002  -0.00023   2.07351
    D3       -2.07374   0.00001   0.00021   0.00002   0.00023  -2.07351
    D4        2.13571   0.00002   0.00043   0.00003   0.00046   2.13616
         Item               Value     Threshold  Converged?
 Maximum Force            0.000053     0.000450     YES
 RMS     Force            0.000018     0.000300     YES
 Maximum Displacement     0.000297     0.001800     YES
 RMS     Displacement     0.000130     0.001200     YES
 Predicted change in Energy=-1.703050D-08
 Optimization completed.
    -- Stationary point found.
                           ----------------------------
                           !   Optimized Parameters   !
                           ! (Angstroms and Degrees)  !
 --------------------------                            --------------------------
 ! Name  Definition              Value          Derivative Info.                !
 --------------------------------------------------------------------------------
 ! R1    R(1,2)                  1.8035         -DE/DX =   -0.0001              !
 ! R2    R(1,3)                  1.0902         -DE/DX =    0.0                 !
 ! R3    R(1,4)                  1.0902         -DE/DX =    0.0                 !
 ! R4    R(1,5)                  1.0902         -DE/DX =    0.0                 !
 ! A1    A(2,1,3)              108.5189         -DE/DX =    0.0                 !
 ! A2    A(2,1,4)              108.5189         -DE/DX =    0.0                 !
 ! A3    A(2,1,5)              108.5189         -DE/DX =    0.0                 !
 ! A4    A(3,1,4)              110.4065         -DE/DX =    0.0                 !
 ! A5    A(3,1,5)              110.4065         -DE/DX =    0.0                 !
 ! A6    A(4,1,5)              110.4065         -DE/DX =    0.0                 !
 ! D1    D(2,1,4,3)           -118.8165         -DE/DX =    0.0                 !
 ! D2    D(2,1,5,3)            118.8165         -DE/DX =    0.0                 !
 ! D3    D(2,1,5,4)           -118.8165         -DE/DX =    0.0                 !
 ! D4    D(3,1,5,4)            122.3669         -DE/DX =    0.0                 !
 --------------------------------------------------------------------------------
 Lowest energy point so far.  Saving SCF results.
 GradGradGradGradGradGradGradGradGradGradGradGradGradGradGradGradGradGrad

 Largest change from initial coordinates is atom    1       0.014 Angstoms.
 Leave Link  103 at Thu Mar 19 18:45:58 2026, MaxMem=   536870912 cpu:         0.0
 (Enter C:\G09W\l202.exe)
                          Input orientation:                          
 ---------------------------------------------------------------------
 Center     Atomic      Atomic             Coordinates (Angstroms)
 Number     Number       Type             X           Y           Z
 ---------------------------------------------------------------------
      1          6           0       -0.152774   -0.007513    0.003595
      2         17           0        1.648053    0.081041   -0.038776
      3          1           0       -0.486846   -0.654133   -0.808041
      4          1           0       -0.456686   -0.418357    0.966568
      5          1           0       -0.552024    0.998947   -0.123339
 ---------------------------------------------------------------------
                    Distance matrix (angstroms):
                    1          2          3          4          5
     1  C    0.000000
     2  Cl   1.803501   0.000000
     3  H    1.090171   2.385381   0.000000
     4  H    1.090171   2.385381   1.790457   0.000000
     5  H    1.090171   2.385381   1.790457   1.790457   0.000000
 Stoichiometry    CH3Cl
 Framework group  C3V[C3(CCl),3SGV(H)]
 Deg. of freedom     3
 Full point group                 C3V     NOp   6
 RotChk:  IX=0 Diff= 8.42D-16
 Largest Abelian subgroup         CS      NOp   2
 Largest concise Abelian subgroup CS      NOp   2
                         Standard orientation:                         
 ---------------------------------------------------------------------
 Center     Atomic      Atomic             Coordinates (Angstroms)
 Number     Number       Type             X           Y           Z
 ---------------------------------------------------------------------
      1          6           0        0.000000    0.000000   -1.139259
      2         17           0        0.000000    0.000000    0.664242
      3          1           0        0.000000    1.033721   -1.485517
      4          1           0        0.895229   -0.516860   -1.485517
      5          1           0       -0.895229   -0.516860   -1.485517
 ---------------------------------------------------------------------
 Rotational constants (GHZ):    156.4243121     13.0325942     13.0325942
 Leave Link  202 at Thu Mar 19 18:45:58 2026, MaxMem=   536870912 cpu:         0.0
 (Enter C:\G09W\l601.exe)
 Copying SCF densities to generalized density rwf, IOpCl= 0 IROHF=0.

 **********************************************************************

            Population analysis using the SCF density.

 **********************************************************************

 Orbital symmetries:
       Occupied  (A1) (A1) (A1) (A1) (E) (E) (A1) (A1) (E) (E)
                 (A1) (E) (E)
       Virtual   (A1) (A1) (E) (E) (A1) (A1) (E) (E) (E) (E) (A1)
                 (E) (E) (A1) (E) (E) (E) (E) (A1) (A1) (E) (E)
                 (A1) (E) (E) (A1) (A1)
 The electronic state is 1-A1.
 Alpha  occ. eigenvalues -- -101.53523 -10.24601  -9.45160  -7.21581  -7.20555
 Alpha  occ. eigenvalues --   -7.20555  -0.84831  -0.68041  -0.45235  -0.45235
 Alpha  occ. eigenvalues --   -0.41211  -0.29645  -0.29645
 Alpha virt. eigenvalues --    0.02581   0.10639   0.14272   0.14272   0.40238
 Alpha virt. eigenvalues --    0.44344   0.46092   0.46092   0.52651   0.52651
 Alpha virt. eigenvalues --    0.55532   0.83729   0.83729   0.87581   0.89659
 Alpha virt. eigenvalues --    0.89659   0.93350   0.93350   1.03038   1.24131
 Alpha virt. eigenvalues --    1.68188   1.68188   2.12434   2.20468   2.20468
 Alpha virt. eigenvalues --    4.08476   4.29920
          Condensed to atoms (all electrons):
               1          2          3          4          5
     1  C    5.175196   0.221064   0.373750   0.373750   0.373750
     2  Cl   0.221064  16.997118  -0.042800  -0.042800  -0.042800
     3  H    0.373750  -0.042800   0.524305  -0.028843  -0.028843
     4  H    0.373750  -0.042800  -0.028843   0.524305  -0.028843
     5  H    0.373750  -0.042800  -0.028843  -0.028843   0.524305
 Mulliken charges:
               1
     1  C   -0.517509
     2  Cl  -0.089783
     3  H    0.202431
     4  H    0.202431
     5  H    0.202431
 Sum of Mulliken charges =   0.00000
 Mulliken charges with hydrogens summed into heavy atoms:
               1
     1  C    0.089783
     2  Cl  -0.089783
 Electronic spatial extent (au):  <R**2>=            132.3937
 Charge=              0.0000 electrons
 Dipole moment (field-independent basis, Debye):
    X=              0.0000    Y=              0.0000    Z=             -2.0833  Tot=              2.0833
 Quadrupole moment (field-independent basis, Debye-Ang):
   XX=            -19.7519   YY=            -19.7519   ZZ=            -17.9416
   XY=              0.0000   XZ=              0.0000   YZ=              0.0000
 Traceless Quadrupole moment (field-independent basis, Debye-Ang):
   XX=             -0.6034   YY=             -0.6034   ZZ=              1.2068
   XY=              0.0000   XZ=              0.0000   YZ=              0.0000
 Octapole moment (field-independent basis, Debye-Ang**2):
  XXX=              0.0000  YYY=              0.7619  ZZZ=              1.7845  XYY=              0.0000
  XXY=             -0.7619  XXZ=             -0.9234  XZZ=              0.0000  YZZ=              0.0000
  YYZ=             -0.9234  XYZ=              0.0000
 Hexadecapole moment (field-independent basis, Debye-Ang**3):
 XXXX=            -27.4138 YYYY=            -27.4138 ZZZZ=           -115.9816 XXXY=              0.0000
 XXXZ=              0.0000 YYYX=              0.0000 YYYZ=             -1.1181 ZZZX=              0.0000
 ZZZY=              0.0000 XXYY=             -9.1379 XXZZ=            -23.9172 YYZZ=            -23.9172
 XXYZ=              1.1181 YYXZ=              0.0000 ZZXY=              0.0000
 N-N= 5.086642630469D+01 E-N=-1.287673433769D+03  KE= 4.982813342848D+02
 Symmetry A'   KE= 4.505058529642D+02
 Symmetry A"   KE= 4.777548132064D+01
 No NMR shielding tensors so no spin-rotation constants.
 Leave Link  601 at Thu Mar 19 18:45:58 2026, MaxMem=   536870912 cpu:         0.0
 (Enter C:\G09W\l9999.exe)
 1|1|UNPC-DESKTOP-GS7R1K3|FOpt|RB3LYP|6-31G(d)|C1H3Cl1|1172|19-Mar-2026
 |0||#p opt B3LYP/6-31G(d)||chloromethane||0,1|C,-0.15277433,-0.0075128
 187,0.0035947619|Cl,1.6480528939,0.0810408859,-0.0387764761|H,-0.48684
 63181,-0.654132773,-0.8080405491|H,-0.4566859758,-0.4183571165,0.96656
 82875|H,-0.5520244943,0.9989465985,-0.123338624||Version=EM64W-G09RevD
 .01|State=1-A1|HF=-500.1085327|RMSD=8.129e-009|RMSF=1.982e-005|Dipole=
 -0.8184175,-0.0402448,0.0192564|Quadrupole=0.8932741,-0.4453861,-0.447
 888,0.0659867,-0.0315734,-0.0015526|PG=C03V [C3(C1Cl1),3SGV(H1)]||@


 PENOTUS DIED A HUNDRED YEARS OLD WANTING BUT TWO...
 AND HE USED TO SAY BEFORE HE DIED, HAVING SPENT HIS
 WHOLE LIFE IN VAINLY SEARCHING AFTER THE PHILOSOPHER'S
 STONE, THAT IF HE HAD A MORTAL ENEMY HE DID NOT DARE
 TO ENCOUNTER OPENLY, HE WOULD ADVISE HIM ABOVE ALL
 THINGS TO GIVE HIMSELF UP TO THE STUDY AND PRACTICE
 OF ALCHEMY.  --  NICOLAS LEMERY, M.D.
 "A COURSE OF CHYMISTRY", WALTER KETTILBY, LONDON, 1686
 Job cpu time:       0 days  0 hours  0 minutes 18.0 seconds.
 File lengths (MBytes):  RWF=      5 Int=      0 D2E=      0 Chk=      1 Scr=      1
 Normal termination of Gaussian 09 at Thu Mar 19 18:45:58 2026.
