 Entering Gaussian System, Link 0=C:\G09W\g09.exe
 Input=formic_acid_rdkit.com
 Output=C:\workspace\delta_chem\data\raw\formic_acid\formic_acid_rdkit.out
 Initial command:
 C:\G09W\l1.exe ".\Gau-13824.inp" "C:\workspace\delta_chem\data\raw\formic_acid\formic_acid_rdkit.out" /scrdir=".\"
 Entering Link 1 = C:\G09W\l1.exe PID=     12652.
  
 Copyright (c) 1988,1990,1992,1993,1995,1998,2003,2009,2013,
            Gaussian, Inc.  All Rights Reserved.
  
 This is part of the Gaussian(R) 09 program.  It is based on
 the Gaussian(R) 03 system (copyright 2003, Gaussian, Inc.),
 the Gaussian(R) 98 system (copyright 1998, Gaussian, Inc.),
 the Gaussian(R) 94 system (copyright 1995, Gaussian, Inc.),
 the Gaussian 92(TM) system (copyright 1992, Gaussian, Inc.),
 the Gaussian 90(TM) system (copyright 1990, Gaussian, Inc.),
 the Gaussian 88(TM) system (copyright 1988, Gaussian, Inc.),
 the Gaussian 86(TM) system (copyright 1986, Carnegie Mellon
 University), and the Gaussian 82(TM) system (copyright 1983,
 Carnegie Mellon University). Gaussian is a federally registered
 trademark of Gaussian, Inc.
  
 This software contains proprietary and confidential information,
 including trade secrets, belonging to Gaussian, Inc.
  
 This software is provided under written license and may be
 used, copied, transmitted, or stored only in accord with that
 written license.
  
 The following legend is applicable only to US Government
 contracts under FAR:
  
                    RESTRICTED RIGHTS LEGEND
  
 Use, reproduction and disclosure by the US Government is
 subject to restrictions as set forth in subparagraphs (a)
 and (c) of the Commercial Computer Software - Restricted
 Rights clause in FAR 52.227-19.
  
 Gaussian, Inc.
 340 Quinnipiac St., Bldg. 40, Wallingford CT 06492
  
  
 ---------------------------------------------------------------
 Warning -- This program may not be used in any manner that
 competes with the business of Gaussian, Inc. or will provide
 assistance to any competitor of Gaussian, Inc.  The licensee
 of this program is prohibited from giving any competitor of
 Gaussian, Inc. access to this program.  By using this program,
 the user acknowledges that Gaussian, Inc. is engaged in the
 business of creating and licensing software in the field of
 computational chemistry and represents and warrants to the
 licensee that it is not a competitor of Gaussian, Inc. and that
 it will not use this program in any manner prohibited above.
 ---------------------------------------------------------------
  

 Cite this work as:
 Gaussian 09, Revision D.01,
 M. J. Frisch, G. W. Trucks, H. B. Schlegel, G. E. Scuseria, 
 M. A. Robb, J. R. Cheeseman, G. Scalmani, V. Barone, B. Mennucci, 
 G. A. Petersson, H. Nakatsuji, M. Caricato, X. Li, H. P. Hratchian, 
 A. F. Izmaylov, J. Bloino, G. Zheng, J. L. Sonnenberg, M. Hada, 
 M. Ehara, K. Toyota, R. Fukuda, J. Hasegawa, M. Ishida, T. Nakajima, 
 Y. Honda, O. Kitao, H. Nakai, T. Vreven, J. A. Montgomery, Jr., 
 J. E. Peralta, F. Ogliaro, M. Bearpark, J. J. Heyd, E. Brothers, 
 K. N. Kudin, V. N. Staroverov, T. Keith, R. Kobayashi, J. Normand, 
 K. Raghavachari, A. Rendell, J. C. Burant, S. S. Iyengar, J. Tomasi, 
 M. Cossi, N. Rega, J. M. Millam, M. Klene, J. E. Knox, J. B. Cross, 
 V. Bakken, C. Adamo, J. Jaramillo, R. Gomperts, R. E. Stratmann, 
 O. Yazyev, A. J. Austin, R. Cammi, C. Pomelli, J. W. Ochterski, 
 R. L. Martin, K. Morokuma, V. G. Zakrzewski, G. A. Voth, 
 P. Salvador, J. J. Dannenberg, S. Dapprich, A. D. Daniels, 
 O. Farkas, J. B. Foresman, J. V. Ortiz, J. Cioslowski, 
 and D. J. Fox, Gaussian, Inc., Wallingford CT, 2013.
 
 ******************************************
 Gaussian 09:  EM64W-G09RevD.01 13-Apr-2013
                19-Mar-2026 
 ******************************************
 %NProcShared=4
 Will use up to    4 processors via shared memory.
 %Mem=4GB
 %Chk=formic_acid_rdkit.chk
 ---------------------
 #p opt B3LYP/6-31G(d)
 ---------------------
 1/14=-1,18=20,19=15,26=3,38=1/1,3;
 2/9=110,12=2,17=6,18=5,40=1/2;
 3/5=1,6=6,7=1,11=2,16=1,25=1,30=1,71=1,74=-5/1,2,3;
 4//1;
 5/5=2,38=5/2;
 6/7=2,8=2,9=2,10=2,28=1/1;
 7//1,2,3,16;
 1/14=-1,18=20,19=15,26=3/3(2);
 2/9=110/2;
 99//99;
 2/9=110/2;
 3/5=1,6=6,7=1,11=2,16=1,25=1,30=1,71=1,74=-5/1,2,3;
 4/5=5,16=3,69=1/1;
 5/5=2,38=5/2;
 7//1,2,3,16;
 1/14=-1,18=20,19=15,26=3/3(-5);
 2/9=110/2;
 6/7=2,8=2,9=2,10=2,19=2,28=1/1;
 99/9=1/99;
 Leave Link    1 at Thu Mar 19 18:38:14 2026, MaxMem=   536870912 cpu:         0.0
 (Enter C:\G09W\l101.exe)
 -----------
 formic_acid
 -----------
 Symbolic Z-matrix:
 Charge =  0 Multiplicity = 1
 O                     0.616    -0.53801   0.51878 
 C                    -0.36593  -0.02556  -0.23847 
 O                    -0.34766   1.13034  -0.61732 
 H                     1.24169   0.20672   0.64012 
 H                    -1.14409  -0.77349  -0.44948 
 
 Add atom      2 valence  3 ND=      2 dihedral       1      2      3      5
 NAtoms=      5 NQM=        5 NQMF=       0 NMMI=      0 NMMIF=      0
                NMic=       0 NMicF=      0.
                    Isotopes and Nuclear Properties:
 (Nuclear quadrupole moments (NQMom) in fm**2, nuclear magnetic moments (NMagM)
  in nuclear magnetons)

  Atom         1           2           3           4           5
 IAtWgt=          16          12          16           1           1
 AtmWgt=  15.9949146  12.0000000  15.9949146   1.0078250   1.0078250
 NucSpn=           0           0           0           1           1
 AtZEff=   0.0000000   0.0000000   0.0000000   0.0000000   0.0000000
 NQMom=    0.0000000   0.0000000   0.0000000   0.0000000   0.0000000
 NMagM=    0.0000000   0.0000000   0.0000000   2.7928460   2.7928460
 AtZNuc=   8.0000000   6.0000000   8.0000000   1.0000000   1.0000000
 Leave Link  101 at Thu Mar 19 18:38:14 2026, MaxMem=   536870912 cpu:         0.0
 (Enter C:\G09W\l103.exe)

 GradGradGradGradGradGradGradGradGradGradGradGradGradGradGradGradGradGrad
 Berny optimization.
 Initialization pass.
                           ----------------------------
                           !    Initial Parameters    !
                           ! (Angstroms and Degrees)  !
 --------------------------                            --------------------------
 ! Name  Definition              Value          Derivative Info.                !
 --------------------------------------------------------------------------------
 ! R1    R(1,2)                  1.3417         estimate D2E/DX2                !
 ! R2    R(1,4)                  0.9802         estimate D2E/DX2                !
 ! R3    R(2,3)                  1.2165         estimate D2E/DX2                !
 ! R4    R(2,5)                  1.0998         estimate D2E/DX2                !
 ! A1    A(2,1,4)              104.2898         estimate D2E/DX2                !
 ! A2    A(1,2,3)              121.8481         estimate D2E/DX2                !
 ! A3    A(1,2,5)              111.4921         estimate D2E/DX2                !
 ! A4    A(3,2,5)              126.6597         estimate D2E/DX2                !
 ! D1    D(4,1,2,3)              0.0            estimate D2E/DX2                !
 ! D2    D(4,1,2,5)           -179.9999         estimate D2E/DX2                !
 ! D3    D(1,2,3,5)           -179.9999         estimate D2E/DX2                !
 --------------------------------------------------------------------------------
 Trust Radius=3.00D-01 FncErr=1.00D-07 GrdErr=1.00D-06
 Number of steps in this run=     21 maximum allowed number of steps=    100.
 GradGradGradGradGradGradGradGradGradGradGradGradGradGradGradGradGradGrad

 Leave Link  103 at Thu Mar 19 18:38:14 2026, MaxMem=   536870912 cpu:         0.0
 (Enter C:\G09W\l202.exe)
                          Input orientation:                          
 ---------------------------------------------------------------------
 Center     Atomic      Atomic             Coordinates (Angstroms)
 Number     Number       Type             X           Y           Z
 ---------------------------------------------------------------------
      1          8           0        0.615998   -0.538009    0.518783
      2          6           0       -0.365929   -0.025559   -0.238467
      3          8           0       -0.347663    1.130337   -0.617319
      4          1           0        1.241685    0.206721    0.640115
      5          1           0       -1.144091   -0.773490   -0.449476
 ---------------------------------------------------------------------
                    Distance matrix (angstroms):
                    1          2          3          4          5
     1  O    0.000000
     2  C    1.341720   0.000000
     3  O    2.236683   1.216535   0.000000
     4  H    0.980219   1.846695   2.227158   0.000000
     5  H    2.022595   1.099755   2.070513   2.799991   0.000000
 Stoichiometry    CH2O2
 Framework group  C1[X(CH2O2)]
 Deg. of freedom     9
 Full point group                 C1      NOp   1
 Largest Abelian subgroup         C1      NOp   1
 Largest concise Abelian subgroup C1      NOp   1
                         Standard orientation:                         
 ---------------------------------------------------------------------
 Center     Atomic      Atomic             Coordinates (Angstroms)
 Number     Number       Type             X           Y           Z
 ---------------------------------------------------------------------
      1          8           0        1.107838   -0.106210    0.000000
      2          6           0       -0.124083    0.425375    0.000000
      3          8           0       -1.122904   -0.269114    0.000000
      4          1           0        0.953639   -1.074224    0.000000
      5          1           0       -0.088609    1.524558   -0.000001
 ---------------------------------------------------------------------
 Rotational constants (GHZ):     72.4775726     12.3472611     10.5499707
 Leave Link  202 at Thu Mar 19 18:38:15 2026, MaxMem=   536870912 cpu:         0.0
 (Enter C:\G09W\l301.exe)
 Standard basis: 6-31G(d) (6D, 7F)
 Ernie: Thresh=  0.10000D-02 Tol=  0.10000D-05 Strict=F.
 There are    49 symmetry adapted cartesian basis functions of A   symmetry.
 There are    49 symmetry adapted basis functions of A   symmetry.
    49 basis functions,    92 primitive gaussians,    49 cartesian basis functions
    12 alpha electrons       12 beta electrons
       nuclear repulsion energy        70.1051845550 Hartrees.
 IExCor=  402 DFT=T Ex+Corr=B3LYP ExCW=0 ScaHFX=  0.200000
 ScaDFX=  0.800000  0.720000  1.000000  0.810000 ScalE2=  1.000000  1.000000
 IRadAn=      0 IRanWt=     -1 IRanGd=            0 ICorTp=0 IEmpDi=  4
 NAtoms=    5 NActive=    5 NUniq=    5 SFac= 1.00D+00 NAtFMM=   60 NAOKFM=F Big=F
 Integral buffers will be    131072 words long.
 Raffenetti 2 integral format.
 Two-electron integral symmetry is turned on.
 Leave Link  301 at Thu Mar 19 18:38:15 2026, MaxMem=   536870912 cpu:         0.0
 (Enter C:\G09W\l302.exe)
 NPDir=0 NMtPBC=     1 NCelOv=     1 NCel=       1 NClECP=     1 NCelD=      1
         NCelK=      1 NCelE2=     1 NClLst=     1 CellRange=     0.0.
 One-electron integrals computed using PRISM.
 NBasis=    49 RedAO= T EigKep=  6.03D-03  NBF=    49
 NBsUse=    49 1.00D-06 EigRej= -1.00D+00 NBFU=    49
 Precomputing XC quadrature grid using
 IXCGrd= 4 IRadAn=           0 IRanWt=          -1 IRanGd=           0 AccXCQ= 0.00D+00.
 Generated NRdTot=       0 NPtTot=           0 NUsed=           0 NTot=          32
 NSgBfM=    49    49    49    49    49 MxSgAt=     5 MxSgA2=     5.
 Leave Link  302 at Thu Mar 19 18:38:15 2026, MaxMem=   536870912 cpu:         0.0
 (Enter C:\G09W\l303.exe)
 DipDrv:  MaxL=1.
 Leave Link  303 at Thu Mar 19 18:38:15 2026, MaxMem=   536870912 cpu:         0.0
 (Enter C:\G09W\l401.exe)
 ExpMin= 1.61D-01 ExpMax= 5.48D+03 ExpMxC= 8.25D+02 IAcc=1 IRadAn=         1 AccDes= 0.00D+00
 Harris functional with IExCor=  402 and IRadAn=       1 diagonalized for initial guess.
 HarFok:  IExCor=  402 AccDes= 0.00D+00 IRadAn=         1 IDoV= 1 UseB2=F ITyADJ=14
 ICtDFT=  3500011 ScaDFX=  1.000000  1.000000  1.000000  1.000000
 FoFCou: FMM=F IPFlag=           0 FMFlag=      100000 FMFlg1=           0
         NFxFlg=           0 DoJE=T BraDBF=F KetDBF=T FulRan=T
         wScrn=  0.000000 ICntrl=     500 IOpCl=  0 I1Cent=   200000004 NGrid=           0
         NMat0=    1 NMatS0=      1 NMatT0=    0 NMatD0=    1 NMtDS0=    0 NMtDT0=    0
 Petite list used in FoFCou.
 Harris En= -189.770473058208    
 JPrj=0 DoOrth=F DoCkMO=F.
 Leave Link  401 at Thu Mar 19 18:38:16 2026, MaxMem=   536870912 cpu:         0.0
 (Enter C:\G09W\l502.exe)
 Closed shell SCF:
 Using DIIS extrapolation, IDIIS=  1040.
 Integral symmetry usage will be decided dynamically.
 Keep R1 ints in memory in canonical form, NReq=1646259.
 IVT=       26416 IEndB=       26416 NGot=   536870912 MDV=   536093572
 LenX=   536093572 LenY=   536090730
 Requested convergence on RMS density matrix=1.00D-08 within 128 cycles.
 Requested convergence on MAX density matrix=1.00D-06.
 Requested convergence on             energy=1.00D-06.
 No special actions if energy rises.
 FoFCou: FMM=F IPFlag=           0 FMFlag=           0 FMFlg1=           0
         NFxFlg=           0 DoJE=F BraDBF=F KetDBF=F FulRan=T
         wScrn=  0.000000 ICntrl=     600 IOpCl=  0 I1Cent=           0 NGrid=           0
         NMat0=    1 NMatS0=   1225 NMatT0=    0 NMatD0=    1 NMtDS0=    0 NMtDT0=    0
 Symmetry not used in FoFCou.
 Integral accuracy reduced to 1.0D-05 until final iterations.

 Cycle   1  Pass 0  IDiag  1:
 E= -189.664535260575    
 DIIS: error= 4.27D-02 at cycle   1 NSaved=   1.
 NSaved= 1 IEnMin= 1 EnMin= -189.664535260575     IErMin= 1 ErrMin= 4.27D-02
 ErrMax= 4.27D-02  0.00D+00 EMaxC= 1.00D-01 BMatC= 1.22D-01 BMatP= 1.22D-01
 IDIUse=3 WtCom= 5.73D-01 WtEn= 4.27D-01
 Coeff-Com:  0.100D+01
 Coeff-En:   0.100D+01
 Coeff:      0.100D+01
 Gap=     0.184 Goal=   None    Shift=    0.000
 GapD=    0.184 DampG=1.000 DampE=0.500 DampFc=0.5000 IDamp=-1.
 Damping current iteration by 5.00D-01
 RMSDP=1.50D-02 MaxDP=2.06D-01              OVMax= 2.55D-01

 Cycle   2  Pass 0  IDiag  1:
 E= -189.673008384136     Delta-E=       -0.008473123561 Rises=F Damp=T
 DIIS: error= 2.04D-02 at cycle   2 NSaved=   2.
 NSaved= 2 IEnMin= 2 EnMin= -189.673008384136     IErMin= 2 ErrMin= 2.04D-02
 ErrMax= 2.04D-02  0.00D+00 EMaxC= 1.00D-01 BMatC= 2.70D-02 BMatP= 1.22D-01
 IDIUse=3 WtCom= 7.96D-01 WtEn= 2.04D-01
 Coeff-Com:  0.290D+00 0.710D+00
 Coeff-En:   0.461D+00 0.539D+00
 Coeff:      0.325D+00 0.675D+00
 Gap=     0.273 Goal=   None    Shift=    0.000
 RMSDP=4.08D-03 MaxDP=4.20D-02 DE=-8.47D-03 OVMax= 1.79D-01

 Cycle   3  Pass 0  IDiag  1:
 E= -189.744147036865     Delta-E=       -0.071138652729 Rises=F Damp=F
 DIIS: error= 1.24D-02 at cycle   3 NSaved=   3.
 NSaved= 3 IEnMin= 3 EnMin= -189.744147036865     IErMin= 3 ErrMin= 1.24D-02
 ErrMax= 1.24D-02  0.00D+00 EMaxC= 1.00D-01 BMatC= 1.34D-02 BMatP= 2.70D-02
 IDIUse=3 WtCom= 8.76D-01 WtEn= 1.24D-01
 Coeff-Com:  0.156D+00 0.417D+00 0.427D+00
 Coeff-En:   0.000D+00 0.000D+00 0.100D+01
 Coeff:      0.136D+00 0.366D+00 0.498D+00
 Gap=     0.282 Goal=   None    Shift=    0.000
 RMSDP=2.29D-03 MaxDP=3.47D-02 DE=-7.11D-02 OVMax= 5.62D-02

 Cycle   4  Pass 0  IDiag  1:
 E= -189.752528249747     Delta-E=       -0.008381212882 Rises=F Damp=F
 DIIS: error= 6.03D-03 at cycle   4 NSaved=   4.
 NSaved= 4 IEnMin= 4 EnMin= -189.752528249747     IErMin= 4 ErrMin= 6.03D-03
 ErrMax= 6.03D-03  0.00D+00 EMaxC= 1.00D-01 BMatC= 2.75D-03 BMatP= 1.34D-02
 IDIUse=3 WtCom= 9.40D-01 WtEn= 6.03D-02
 Coeff-Com:  0.359D-01 0.843D-01 0.312D+00 0.568D+00
 Coeff-En:   0.000D+00 0.000D+00 0.193D+00 0.807D+00
 Coeff:      0.337D-01 0.792D-01 0.304D+00 0.583D+00
 Gap=     0.285 Goal=   None    Shift=    0.000
 RMSDP=8.29D-04 MaxDP=1.21D-02 DE=-8.38D-03 OVMax= 1.88D-02

 Cycle   5  Pass 0  IDiag  1:
 E= -189.754455518521     Delta-E=       -0.001927268774 Rises=F Damp=F
 DIIS: error= 9.93D-04 at cycle   5 NSaved=   5.
 NSaved= 5 IEnMin= 5 EnMin= -189.754455518521     IErMin= 5 ErrMin= 9.93D-04
 ErrMax= 9.93D-04  0.00D+00 EMaxC= 1.00D-01 BMatC= 1.03D-04 BMatP= 2.75D-03
 IDIUse=3 WtCom= 9.90D-01 WtEn= 9.93D-03
 Coeff-Com:  0.431D-02-0.426D-03 0.987D-01 0.279D+00 0.619D+00
 Coeff-En:   0.000D+00 0.000D+00 0.000D+00 0.000D+00 0.100D+01
 Coeff:      0.427D-02-0.422D-03 0.977D-01 0.276D+00 0.622D+00
 Gap=     0.285 Goal=   None    Shift=    0.000
 RMSDP=1.79D-04 MaxDP=1.96D-03 DE=-1.93D-03 OVMax= 2.82D-03

 Cycle   6  Pass 0  IDiag  1:
 E= -189.754543984801     Delta-E=       -0.000088466280 Rises=F Damp=F
 DIIS: error= 1.37D-04 at cycle   6 NSaved=   6.
 NSaved= 6 IEnMin= 6 EnMin= -189.754543984801     IErMin= 6 ErrMin= 1.37D-04
 ErrMax= 1.37D-04  0.00D+00 EMaxC= 1.00D-01 BMatC= 1.87D-06 BMatP= 1.03D-04
 IDIUse=3 WtCom= 9.99D-01 WtEn= 1.37D-03
 Coeff-Com:  0.725D-03-0.376D-02 0.202D-01 0.574D-01 0.189D+00 0.736D+00
 Coeff-En:   0.000D+00 0.000D+00 0.000D+00 0.000D+00 0.000D+00 0.100D+01
 Coeff:      0.724D-03-0.376D-02 0.202D-01 0.574D-01 0.189D+00 0.736D+00
 Gap=     0.286 Goal=   None    Shift=    0.000
 RMSDP=2.53D-05 MaxDP=1.86D-04 DE=-8.85D-05 OVMax= 3.30D-04

 Cycle   7  Pass 0  IDiag  1:
 E= -189.754545538345     Delta-E=       -0.000001553544 Rises=F Damp=F
 DIIS: error= 1.92D-05 at cycle   7 NSaved=   7.
 NSaved= 7 IEnMin= 7 EnMin= -189.754545538345     IErMin= 7 ErrMin= 1.92D-05
 ErrMax= 1.92D-05  0.00D+00 EMaxC= 1.00D-01 BMatC= 3.35D-08 BMatP= 1.87D-06
 IDIUse=1 WtCom= 1.00D+00 WtEn= 0.00D+00
 Coeff-Com:  0.185D-03-0.685D-03 0.178D-02 0.284D-02 0.168D-01 0.853D-01
 Coeff-Com:  0.894D+00
 Coeff:      0.185D-03-0.685D-03 0.178D-02 0.284D-02 0.168D-01 0.853D-01
 Coeff:      0.894D+00
 Gap=     0.286 Goal=   None    Shift=    0.000
 RMSDP=4.11D-06 MaxDP=3.22D-05 DE=-1.55D-06 OVMax= 7.03D-05

 Initial convergence to 1.0D-05 achieved.  Increase integral accuracy.
 Cycle   8  Pass 1  IDiag  1:
 E= -189.754546551868     Delta-E=       -0.000001013524 Rises=F Damp=F
 DIIS: error= 4.10D-06 at cycle   1 NSaved=   1.
 NSaved= 1 IEnMin= 1 EnMin= -189.754546551868     IErMin= 1 ErrMin= 4.10D-06
 ErrMax= 4.10D-06  0.00D+00 EMaxC= 1.00D-01 BMatC= 1.38D-09 BMatP= 1.38D-09
 IDIUse=1 WtCom= 1.00D+00 WtEn= 0.00D+00
 Coeff-Com:  0.100D+01
 Coeff:      0.100D+01
 Gap=     0.286 Goal=   None    Shift=    0.000
 RMSDP=4.11D-06 MaxDP=3.22D-05 DE=-1.01D-06 OVMax= 1.57D-05

 Cycle   9  Pass 1  IDiag  1:
 E= -189.754546552610     Delta-E=       -0.000000000742 Rises=F Damp=F
 DIIS: error= 2.94D-06 at cycle   2 NSaved=   2.
 NSaved= 2 IEnMin= 2 EnMin= -189.754546552610     IErMin= 2 ErrMin= 2.94D-06
 ErrMax= 2.94D-06  0.00D+00 EMaxC= 1.00D-01 BMatC= 8.32D-10 BMatP= 1.38D-09
 IDIUse=1 WtCom= 1.00D+00 WtEn= 0.00D+00
 Coeff-Com:  0.416D+00 0.584D+00
 Coeff:      0.416D+00 0.584D+00
 Gap=     0.286 Goal=   None    Shift=    0.000
 RMSDP=7.84D-07 MaxDP=1.20D-05 DE=-7.42D-10 OVMax= 2.11D-05

 Cycle  10  Pass 1  IDiag  1:
 E= -189.754546552741     Delta-E=       -0.000000000131 Rises=F Damp=F
 DIIS: error= 2.49D-06 at cycle   3 NSaved=   3.
 NSaved= 3 IEnMin= 3 EnMin= -189.754546552741     IErMin= 3 ErrMin= 2.49D-06
 ErrMax= 2.49D-06  0.00D+00 EMaxC= 1.00D-01 BMatC= 6.97D-10 BMatP= 8.32D-10
 IDIUse=1 WtCom= 1.00D+00 WtEn= 0.00D+00
 Coeff-Com:  0.600D-01 0.467D+00 0.473D+00
 Coeff:      0.600D-01 0.467D+00 0.473D+00
 Gap=     0.286 Goal=   None    Shift=    0.000
 RMSDP=3.98D-07 MaxDP=5.45D-06 DE=-1.31D-10 OVMax= 9.38D-06

 Cycle  11  Pass 1  IDiag  1:
 E= -189.754546553262     Delta-E=       -0.000000000521 Rises=F Damp=F
 DIIS: error= 2.43D-07 at cycle   4 NSaved=   4.
 NSaved= 4 IEnMin= 4 EnMin= -189.754546553262     IErMin= 4 ErrMin= 2.43D-07
 ErrMax= 2.43D-07  0.00D+00 EMaxC= 1.00D-01 BMatC= 4.37D-12 BMatP= 6.97D-10
 IDIUse=1 WtCom= 1.00D+00 WtEn= 0.00D+00
 Coeff-Com: -0.104D-01 0.118D+00 0.138D+00 0.754D+00
 Coeff:     -0.104D-01 0.118D+00 0.138D+00 0.754D+00
 Gap=     0.286 Goal=   None    Shift=    0.000
 RMSDP=4.08D-08 MaxDP=5.30D-07 DE=-5.21D-10 OVMax= 6.39D-07

 Cycle  12  Pass 1  IDiag  1:
 E= -189.754546553263     Delta-E=       -0.000000000001 Rises=F Damp=F
 DIIS: error= 1.31D-07 at cycle   5 NSaved=   5.
 NSaved= 5 IEnMin= 5 EnMin= -189.754546553263     IErMin= 5 ErrMin= 1.31D-07
 ErrMax= 1.31D-07  0.00D+00 EMaxC= 1.00D-01 BMatC= 1.16D-12 BMatP= 4.37D-12
 IDIUse=1 WtCom= 1.00D+00 WtEn= 0.00D+00
 Coeff-Com: -0.786D-02 0.525D-01 0.598D-01 0.432D+00 0.463D+00
 Coeff:     -0.786D-02 0.525D-01 0.598D-01 0.432D+00 0.463D+00
 Gap=     0.286 Goal=   None    Shift=    0.000
 RMSDP=1.48D-08 MaxDP=2.30D-07 DE=-1.31D-12 OVMax= 3.44D-07

 Cycle  13  Pass 1  IDiag  1:
 E= -189.754546553266     Delta-E=       -0.000000000002 Rises=F Damp=F
 DIIS: error= 2.08D-08 at cycle   6 NSaved=   6.
 NSaved= 6 IEnMin= 6 EnMin= -189.754546553266     IErMin= 6 ErrMin= 2.08D-08
 ErrMax= 2.08D-08  0.00D+00 EMaxC= 1.00D-01 BMatC= 3.89D-14 BMatP= 1.16D-12
 IDIUse=1 WtCom= 1.00D+00 WtEn= 0.00D+00
 Coeff-Com: -0.412D-03-0.286D-02-0.800D-02 0.102D-02 0.125D+00 0.886D+00
 Coeff:     -0.412D-03-0.286D-02-0.800D-02 0.102D-02 0.125D+00 0.886D+00
 Gap=     0.286 Goal=   None    Shift=    0.000
 RMSDP=3.91D-09 MaxDP=4.79D-08 DE=-2.44D-12 OVMax= 6.10D-08

 SCF Done:  E(RB3LYP) =  -189.754546553     A.U. after   13 cycles
            NFock= 13  Conv=0.39D-08     -V/T= 2.0087
 KE= 1.881157953754D+02 PE=-5.863110123807D+02 EE= 1.383354858970D+02
 Leave Link  502 at Thu Mar 19 18:38:17 2026, MaxMem=   536870912 cpu:         1.0
 (Enter C:\G09W\l601.exe)
 Copying SCF densities to generalized density rwf, IOpCl= 0 IROHF=0.

 **********************************************************************

            Population analysis using the SCF density.

 **********************************************************************

 Orbital symmetries:
       Occupied  (A) (A) (A) (A) (A) (A) (A) (A) (A) (A) (A) (A)
       Virtual   (A) (A) (A) (A) (A) (A) (A) (A) (A) (A) (A) (A)
                 (A) (A) (A) (A) (A) (A) (A) (A) (A) (A) (A) (A)
                 (A) (A) (A) (A) (A) (A) (A) (A) (A) (A) (A) (A)
                 (A)
 The electronic state is 1-A.
 Alpha  occ. eigenvalues --  -19.21123 -19.15286 -10.33124  -1.11907  -1.02179
 Alpha  occ. eigenvalues --   -0.66710  -0.52100  -0.49066  -0.44882  -0.40933
 Alpha  occ. eigenvalues --   -0.32778  -0.29021
 Alpha virt. eigenvalues --   -0.00450   0.06785   0.12927   0.25882   0.27105
 Alpha virt. eigenvalues --    0.50570   0.53103   0.66038   0.69509   0.75722
 Alpha virt. eigenvalues --    0.83005   0.85547   0.90071   0.93680   0.98129
 Alpha virt. eigenvalues --    1.06043   1.10610   1.38489   1.38705   1.45991
 Alpha virt. eigenvalues --    1.46063   1.68955   1.73127   1.83038   1.83475
 Alpha virt. eigenvalues --    1.87311   2.08061   2.33204   2.34303   2.48882
 Alpha virt. eigenvalues --    2.60729   2.70149   2.88634   2.96952   3.71638
 Alpha virt. eigenvalues --    3.78211   4.14226
          Condensed to atoms (all electrons):
               1          2          3          4          5
     1  O    8.189969   0.276731  -0.086645   0.212373  -0.077359
     2  C    0.276731   4.439446   0.562462  -0.009437   0.363567
     3  O   -0.086645   0.562462   7.976459   0.015002  -0.049098
     4  H    0.212373  -0.009437   0.015002   0.362201   0.009880
     5  H   -0.077359   0.363567  -0.049098   0.009880   0.596969
 Mulliken charges:
               1
     1  O   -0.515070
     2  C    0.367230
     3  O   -0.418181
     4  H    0.409980
     5  H    0.156041
 Sum of Mulliken charges =   0.00000
 Mulliken charges with hydrogens summed into heavy atoms:
               1
     1  O   -0.105090
     2  C    0.523271
     3  O   -0.418181
 Electronic spatial extent (au):  <R**2>=            131.1511
 Charge=              0.0000 electrons
 Dipole moment (field-independent basis, Debye):
    X=              1.3575    Y=              0.2009    Z=              0.0000  Tot=              1.3722
 Quadrupole moment (field-independent basis, Debye-Ang):
   XX=            -20.9630   YY=            -13.2245   ZZ=            -16.6166
   XY=             -2.4501   XZ=              0.0000   YZ=              0.0000
 Traceless Quadrupole moment (field-independent basis, Debye-Ang):
   XX=             -4.0283   YY=              3.7102   ZZ=              0.3181
   XY=             -2.4501   XZ=              0.0000   YZ=              0.0000
 Octapole moment (field-independent basis, Debye-Ang**2):
  XXX=              1.9461  YYY=             -2.0554  ZZZ=              0.0000  XYY=              2.7582
  XXY=             -1.8810  XXZ=              0.0000  XZZ=             -0.0635  YZZ=             -0.5998
  YYZ=              0.0000  XYZ=              0.0000
 Hexadecapole moment (field-independent basis, Debye-Ang**3):
 XXXX=           -104.0672 YYYY=            -27.8109 ZZZZ=            -12.6437 XXXY=             -2.7879
 XXXZ=              0.0000 YYYX=             -3.5842 YYYZ=              0.0000 ZZZX=              0.0000
 ZZZY=              0.0000 XXYY=            -19.6734 XXZZ=            -18.5754 YYZZ=             -7.8521
 XXYZ=              0.0000 YYXZ=              0.0000 ZZXY=             -0.1775
 N-N= 7.010518455496D+01 E-N=-5.863110121228D+02  KE= 1.881157953754D+02
 No NMR shielding tensors so no spin-rotation constants.
 Leave Link  601 at Thu Mar 19 18:38:18 2026, MaxMem=   536870912 cpu:         1.0
 (Enter C:\G09W\l701.exe)
 Compute integral first derivatives.
 ... and contract with generalized density number  0.
 Leave Link  701 at Thu Mar 19 18:38:18 2026, MaxMem=   536870912 cpu:         0.0
 (Enter C:\G09W\l702.exe)
 L702 exits ... SP integral derivatives will be done elsewhere.
 Leave Link  702 at Thu Mar 19 18:38:18 2026, MaxMem=   536870912 cpu:         0.0
 (Enter C:\G09W\l703.exe)
 Compute integral first derivatives, UseDBF=F ICtDFT=           0.
 Integral derivatives from FoFJK, PRISM(SPDF).
 Calling FoFJK, ICntrl=      2127 FMM=F ISym2X=0 I1Cent= 0 IOpClX= 0 NMat=1 NMatS=1 NMatT=0.
 FoFJK:  IHMeth= 1 ICntrl=    2127 DoSepK=F KAlg= 0 I1Cent=   0 FoldK=F
 IRaf=         0 NMat=   1 IRICut=       1 DoRegI=T DoRafI=F ISym2E= 0.
 FoFCou: FMM=F IPFlag=           0 FMFlag=      100000 FMFlg1=         800
         NFxFlg=           0 DoJE=F BraDBF=F KetDBF=F FulRan=T
         wScrn=  0.000000 ICntrl=    2127 IOpCl=  0 I1Cent=           0 NGrid=           0
         NMat0=    1 NMatS0=      1 NMatT0=    0 NMatD0=    1 NMtDS0=    0 NMtDT0=    0
 Symmetry not used in FoFCou.
 Leave Link  703 at Thu Mar 19 18:38:19 2026, MaxMem=   536870912 cpu:         0.0
 (Enter C:\G09W\l716.exe)
 Dipole        = 5.34065723D-01 7.90523015D-02-1.25515853D-07
 ***** Axes restored to original set *****
 -------------------------------------------------------------------
 Center     Atomic                   Forces (Hartrees/Bohr)
 Number     Number              X              Y              Z
 -------------------------------------------------------------------
      1        8           0.000434172   -0.005057284    0.001963529
      2        6           0.006720376    0.021983986   -0.003411848
      3        8          -0.008381220   -0.014917251    0.000040738
      4        1          -0.000000850   -0.002998658    0.001010515
      5        1           0.001227521    0.000989207    0.000397066
 -------------------------------------------------------------------
 Cartesian Forces:  Max     0.021983986 RMS     0.007638267
 Leave Link  716 at Thu Mar 19 18:38:19 2026, MaxMem=   536870912 cpu:         0.0
 (Enter C:\G09W\l103.exe)

 GradGradGradGradGradGradGradGradGradGradGradGradGradGradGradGradGradGrad
 Berny optimization.
 FormGI is forming the generalized inverse of G from B-inverse, IUseBI=4.
 Internal  Forces:  Max     0.014484857 RMS     0.007205045
 Search for a local minimum.
 Step number   1 out of a maximum of   21
 All quantities printed in internal units (Hartrees-Bohrs-Radians)
 RMS Force = .72050D-02 SwitMx=.10000D-02 MixMth= 1
 Mixed Optimization -- RFO/linear search
 Second derivative matrix not updated -- first step.
 The second derivative matrix:
                          R1        R2        R3        R4        A1
           R1           0.56821
           R2           0.00000   0.51342
           R3           0.00000   0.00000   0.96935
           R4           0.00000   0.00000   0.00000   0.33709
           A1           0.00000   0.00000   0.00000   0.00000   0.16000
           A2           0.00000   0.00000   0.00000   0.00000   0.00000
           A3           0.00000   0.00000   0.00000   0.00000   0.00000
           A4           0.00000   0.00000   0.00000   0.00000   0.00000
           D1           0.00000   0.00000   0.00000   0.00000   0.00000
           D2           0.00000   0.00000   0.00000   0.00000   0.00000
           D3           0.00000   0.00000   0.00000   0.00000   0.00000
                          A2        A3        A4        D1        D2
           A2           0.25000
           A3           0.00000   0.16000
           A4           0.00000   0.00000   0.16000
           D1           0.00000   0.00000   0.00000   0.02463
           D2           0.00000   0.00000   0.00000   0.00000   0.02463
           D3           0.00000   0.00000   0.00000   0.00000   0.00000
                          D3
           D3           0.04119
 ITU=  0
     Eigenvalues ---    0.02463   0.03670   0.16000   0.16000   0.22000
     Eigenvalues ---    0.33709   0.51342   0.56821   0.96935
 RFO step:  Lambda=-1.80599214D-03 EMin= 2.46270982D-02
 Linear search not attempted -- first point.
 Iteration  1 RMS(Cart)=  0.04270124 RMS(Int)=  0.00097953
 Iteration  2 RMS(Cart)=  0.00091039 RMS(Int)=  0.00000010
 Iteration  3 RMS(Cart)=  0.00000015 RMS(Int)=  0.00000000
 ITry= 1 IFail=0 DXMaxC= 8.35D-02 DCOld= 1.00D+10 DXMaxT= 3.00D-01 DXLimC= 3.00D+00 Rises=F
 Variable       Old X    -DE/DX   Delta X   Delta X   Delta X     New X
                                 (Linear)    (Quad)   (Total)
    R1        2.53548   0.00507   0.00000   0.00890   0.00890   2.54438
    R2        1.85234  -0.00215   0.00000  -0.00418  -0.00418   1.84816
    R3        2.29892  -0.01431   0.00000  -0.01474  -0.01474   2.28418
    R4        2.07824  -0.00162   0.00000  -0.00477  -0.00477   2.07346
    A1        1.82020   0.00429   0.00000   0.02654   0.02654   1.84674
    A2        2.12665   0.01448   0.00000   0.06530   0.06530   2.19196
    A3        1.94590  -0.00741   0.00000  -0.03370  -0.03370   1.91220
    A4        2.21063  -0.00707   0.00000  -0.03160  -0.03160   2.17903
    D1        0.00000   0.00000   0.00000   0.00000   0.00000   0.00000
    D2       -3.14159   0.00000   0.00000   0.00000   0.00000   3.14159
    D3       -3.14159   0.00000   0.00000   0.00000   0.00000   3.14159
         Item               Value     Threshold  Converged?
 Maximum Force            0.014485     0.000450     NO 
 RMS     Force            0.007205     0.000300     NO 
 Maximum Displacement     0.083546     0.001800     NO 
 RMS     Displacement     0.042399     0.001200     NO 
 Predicted change in Energy=-9.097141D-04
 Lowest energy point so far.  Saving SCF results.
 GradGradGradGradGradGradGradGradGradGradGradGradGradGradGradGradGradGrad

 Leave Link  103 at Thu Mar 19 18:38:19 2026, MaxMem=   536870912 cpu:         0.0
 (Enter C:\G09W\l202.exe)
                          Input orientation:                          
 ---------------------------------------------------------------------
 Center     Atomic      Atomic             Coordinates (Angstroms)
 Number     Number       Type             X           Y           Z
 ---------------------------------------------------------------------
      1          8           0        0.614562   -0.540466    0.518757
      2          6           0       -0.359597   -0.005647   -0.241411
      3          8           0       -0.391874    1.133384   -0.644662
      4          1           0        1.263694    0.176620    0.663364
      5          1           0       -1.126785   -0.763891   -0.442412
 ---------------------------------------------------------------------
                    Distance matrix (angstroms):
                    1          2          3          4          5
     1  O    0.000000
     2  C    1.346429   0.000000
     3  O    2.273374   1.208737   0.000000
     4  H    0.978007   1.867328   2.316730   0.000000
     5  H    2.001512   1.097230   2.044664   2.796729   0.000000
 Stoichiometry    CH2O2
 Framework group  C1[X(CH2O2)]
 Deg. of freedom     9
 Full point group                 C1      NOp   1
 RotChk:  IX=0 Diff= 2.36D-02
 Largest Abelian subgroup         C1      NOp   1
 Largest concise Abelian subgroup C1      NOp   1
                         Standard orientation:                         
 ---------------------------------------------------------------------
 Center     Atomic      Atomic             Coordinates (Angstroms)
 Number     Number       Type             X           Y           Z
 ---------------------------------------------------------------------
      1          8           0        1.123897   -0.092410    0.000000
      2          6           0       -0.129825    0.398562    0.000000
      3          8           0       -1.143277   -0.260193    0.000000
      4          1           0        1.028876   -1.065790    0.000000
      5          1           0       -0.094886    1.495236    0.000000
 ---------------------------------------------------------------------
 Rotational constants (GHZ):     78.0102754     11.9160810     10.3370891
 Leave Link  202 at Thu Mar 19 18:38:19 2026, MaxMem=   536870912 cpu:         0.0
 (Enter C:\G09W\l301.exe)
 Standard basis: 6-31G(d) (6D, 7F)
 Ernie: Thresh=  0.10000D-02 Tol=  0.10000D-05 Strict=F.
 There are    49 symmetry adapted cartesian basis functions of A   symmetry.
 There are    49 symmetry adapted basis functions of A   symmetry.
    49 basis functions,    92 primitive gaussians,    49 cartesian basis functions
    12 alpha electrons       12 beta electrons
       nuclear repulsion energy        69.9013437361 Hartrees.
 IExCor=  402 DFT=T Ex+Corr=B3LYP ExCW=0 ScaHFX=  0.200000
 ScaDFX=  0.800000  0.720000  1.000000  0.810000 ScalE2=  1.000000  1.000000
 IRadAn=      0 IRanWt=     -1 IRanGd=            0 ICorTp=0 IEmpDi=  4
 NAtoms=    5 NActive=    5 NUniq=    5 SFac= 1.00D+00 NAtFMM=   60 NAOKFM=F Big=F
 Integral buffers will be    131072 words long.
 Raffenetti 2 integral format.
 Two-electron integral symmetry is turned on.
 Leave Link  301 at Thu Mar 19 18:38:20 2026, MaxMem=   536870912 cpu:         0.0
 (Enter C:\G09W\l302.exe)
 NPDir=0 NMtPBC=     1 NCelOv=     1 NCel=       1 NClECP=     1 NCelD=      1
         NCelK=      1 NCelE2=     1 NClLst=     1 CellRange=     0.0.
 One-electron integrals computed using PRISM.
 NBasis=    49 RedAO= T EigKep=  6.11D-03  NBF=    49
 NBsUse=    49 1.00D-06 EigRej= -1.00D+00 NBFU=    49
 Precomputing XC quadrature grid using
 IXCGrd= 4 IRadAn=           0 IRanWt=          -1 IRanGd=           0 AccXCQ= 0.00D+00.
 Generated NRdTot=       0 NPtTot=           0 NUsed=           0 NTot=          32
 NSgBfM=    49    49    49    49    49 MxSgAt=     5 MxSgA2=     5.
 Leave Link  302 at Thu Mar 19 18:38:20 2026, MaxMem=   536870912 cpu:         0.0
 (Enter C:\G09W\l303.exe)
 DipDrv:  MaxL=1.
 Leave Link  303 at Thu Mar 19 18:38:20 2026, MaxMem=   536870912 cpu:         0.0
 (Enter C:\G09W\l401.exe)
 Initial guess from the checkpoint file:  "formic_acid_rdkit.chk"
 B after Tr=     0.000000    0.000000    0.000000
         Rot=    0.999996    0.000000    0.000000   -0.002796 Ang=  -0.32 deg.
 Guess basis will be translated and rotated to current coordinates.
 JPrj=2 DoOrth=T DoCkMO=T.
 Generating alternative initial guess.
 ExpMin= 1.61D-01 ExpMax= 5.48D+03 ExpMxC= 8.25D+02 IAcc=1 IRadAn=         1 AccDes= 0.00D+00
 Harris functional with IExCor=  402 and IRadAn=       1 diagonalized for initial guess.
 HarFok:  IExCor=  402 AccDes= 0.00D+00 IRadAn=         1 IDoV= 1 UseB2=F ITyADJ=14
 ICtDFT=  3500011 ScaDFX=  1.000000  1.000000  1.000000  1.000000
 FoFCou: FMM=F IPFlag=           0 FMFlag=      100000 FMFlg1=           0
         NFxFlg=           0 DoJE=T BraDBF=F KetDBF=T FulRan=T
         wScrn=  0.000000 ICntrl=     500 IOpCl=  0 I1Cent=   200000004 NGrid=           0
         NMat0=    1 NMatS0=      1 NMatT0=    0 NMatD0=    1 NMtDS0=    0 NMtDT0=    0
 Petite list used in FoFCou.
 Harris En= -189.771097997274    
 Leave Link  401 at Thu Mar 19 18:38:21 2026, MaxMem=   536870912 cpu:         1.0
 (Enter C:\G09W\l502.exe)
 Closed shell SCF:
 Using DIIS extrapolation, IDIIS=  1040.
 Integral symmetry usage will be decided dynamically.
 Keep R1 ints in memory in canonical form, NReq=1646259.
 IVT=       26416 IEndB=       26416 NGot=   536870912 MDV=   536093572
 LenX=   536093572 LenY=   536090730
 Requested convergence on RMS density matrix=1.00D-08 within 128 cycles.
 Requested convergence on MAX density matrix=1.00D-06.
 Requested convergence on             energy=1.00D-06.
 No special actions if energy rises.
 FoFCou: FMM=F IPFlag=           0 FMFlag=           0 FMFlg1=           0
         NFxFlg=           0 DoJE=F BraDBF=F KetDBF=F FulRan=T
         wScrn=  0.000000 ICntrl=     600 IOpCl=  0 I1Cent=           0 NGrid=           0
         NMat0=    1 NMatS0=   1225 NMatT0=    0 NMatD0=    1 NMtDS0=    0 NMtDT0=    0
 Symmetry not used in FoFCou.
 Integral accuracy reduced to 1.0D-05 until final iterations.

 Cycle   1  Pass 0  IDiag  1:
 E= -189.754104929825    
 DIIS: error= 2.77D-03 at cycle   1 NSaved=   1.
 NSaved= 1 IEnMin= 1 EnMin= -189.754104929825     IErMin= 1 ErrMin= 2.77D-03
 ErrMax= 2.77D-03  0.00D+00 EMaxC= 1.00D-01 BMatC= 8.57D-04 BMatP= 8.57D-04
 IDIUse=3 WtCom= 9.72D-01 WtEn= 2.77D-02
 Coeff-Com:  0.100D+01
 Coeff-En:   0.100D+01
 Coeff:      0.100D+01
 Gap=     1.486 Goal=   None    Shift=    0.000
 GapD=    1.486 DampG=2.000 DampE=1.000 DampFc=2.0000 IDamp=-1.
 RMSDP=1.02D-03 MaxDP=1.01D-02              OVMax= 1.25D-02

 Cycle   2  Pass 0  IDiag  1:
 E= -189.755375538453     Delta-E=       -0.001270608628 Rises=F Damp=F
 DIIS: error= 5.21D-04 at cycle   2 NSaved=   2.
 NSaved= 2 IEnMin= 2 EnMin= -189.755375538453     IErMin= 2 ErrMin= 5.21D-04
 ErrMax= 5.21D-04  0.00D+00 EMaxC= 1.00D-01 BMatC= 1.91D-05 BMatP= 8.57D-04
 IDIUse=3 WtCom= 9.95D-01 WtEn= 5.21D-03
 Coeff-Com: -0.161D-01 0.102D+01
 Coeff-En:   0.000D+00 0.100D+01
 Coeff:     -0.160D-01 0.102D+01
 Gap=     0.289 Goal=   None    Shift=    0.000
 RMSDP=1.31D-04 MaxDP=1.22D-03 DE=-1.27D-03 OVMax= 1.56D-03

 Cycle   3  Pass 0  IDiag  1:
 E= -189.755382218570     Delta-E=       -0.000006680117 Rises=F Damp=F
 DIIS: error= 5.42D-04 at cycle   3 NSaved=   3.
 NSaved= 3 IEnMin= 3 EnMin= -189.755382218570     IErMin= 2 ErrMin= 5.21D-04
 ErrMax= 5.42D-04  0.00D+00 EMaxC= 1.00D-01 BMatC= 1.68D-05 BMatP= 1.91D-05
 IDIUse=3 WtCom= 9.95D-01 WtEn= 5.42D-03
 Coeff-Com: -0.276D-01 0.501D+00 0.527D+00
 Coeff-En:   0.000D+00 0.329D+00 0.671D+00
 Coeff:     -0.274D-01 0.500D+00 0.528D+00
 Gap=     0.290 Goal=   None    Shift=    0.000
 RMSDP=8.14D-05 MaxDP=1.35D-03 DE=-6.68D-06 OVMax= 1.70D-03

 Cycle   4  Pass 0  IDiag  1:
 E= -189.755390304936     Delta-E=       -0.000008086365 Rises=F Damp=F
 DIIS: error= 2.96D-04 at cycle   4 NSaved=   4.
 NSaved= 4 IEnMin= 4 EnMin= -189.755390304936     IErMin= 4 ErrMin= 2.96D-04
 ErrMax= 2.96D-04  0.00D+00 EMaxC= 1.00D-01 BMatC= 5.46D-06 BMatP= 1.68D-05
 IDIUse=3 WtCom= 9.97D-01 WtEn= 2.96D-03
 Coeff-Com: -0.142D-01 0.182D+00 0.374D+00 0.459D+00
 Coeff-En:   0.000D+00 0.000D+00 0.287D+00 0.713D+00
 Coeff:     -0.142D-01 0.181D+00 0.374D+00 0.459D+00
 Gap=     0.290 Goal=   None    Shift=    0.000
 RMSDP=3.87D-05 MaxDP=5.88D-04 DE=-8.09D-06 OVMax= 9.28D-04

 Cycle   5  Pass 0  IDiag  1:
 E= -189.755394411140     Delta-E=       -0.000004106205 Rises=F Damp=F
 DIIS: error= 4.62D-05 at cycle   5 NSaved=   5.
 NSaved= 5 IEnMin= 5 EnMin= -189.755394411140     IErMin= 5 ErrMin= 4.62D-05
 ErrMax= 4.62D-05  0.00D+00 EMaxC= 1.00D-01 BMatC= 2.13D-07 BMatP= 5.46D-06
 IDIUse=1 WtCom= 1.00D+00 WtEn= 0.00D+00
 Coeff-Com: -0.686D-02 0.771D-01 0.186D+00 0.257D+00 0.486D+00
 Coeff:     -0.686D-02 0.771D-01 0.186D+00 0.257D+00 0.486D+00
 Gap=     0.290 Goal=   None    Shift=    0.000
 RMSDP=7.55D-06 MaxDP=1.21D-04 DE=-4.11D-06 OVMax= 1.52D-04

 Initial convergence to 1.0D-05 achieved.  Increase integral accuracy.
 Cycle   6  Pass 1  IDiag  1:
 E= -189.755396035716     Delta-E=       -0.000001624576 Rises=F Damp=F
 DIIS: error= 1.45D-05 at cycle   1 NSaved=   1.
 NSaved= 1 IEnMin= 1 EnMin= -189.755396035716     IErMin= 1 ErrMin= 1.45D-05
 ErrMax= 1.45D-05  0.00D+00 EMaxC= 1.00D-01 BMatC= 1.72D-08 BMatP= 1.72D-08
 IDIUse=1 WtCom= 1.00D+00 WtEn= 0.00D+00
 Coeff-Com:  0.100D+01
 Coeff:      0.100D+01
 Gap=     0.290 Goal=   None    Shift=    0.000
 RMSDP=7.55D-06 MaxDP=1.21D-04 DE=-1.62D-06 OVMax= 1.08D-04

 Cycle   7  Pass 1  IDiag  1:
 E= -189.755396009640     Delta-E=        0.000000026076 Rises=F Damp=F
 DIIS: error= 2.59D-05 at cycle   2 NSaved=   2.
 NSaved= 2 IEnMin= 1 EnMin= -189.755396035716     IErMin= 1 ErrMin= 1.45D-05
 ErrMax= 2.59D-05  0.00D+00 EMaxC= 1.00D-01 BMatC= 5.40D-08 BMatP= 1.72D-08
 IDIUse=1 WtCom= 1.00D+00 WtEn= 0.00D+00
 Coeff-Com:  0.644D+00 0.356D+00
 Coeff:      0.644D+00 0.356D+00
 Gap=     0.290 Goal=   None    Shift=    0.000
 RMSDP=3.30D-06 MaxDP=5.34D-05 DE= 2.61D-08 OVMax= 7.83D-05

 Cycle   8  Pass 1  IDiag  1:
 E= -189.755396048476     Delta-E=       -0.000000038836 Rises=F Damp=F
 DIIS: error= 4.21D-06 at cycle   3 NSaved=   3.
 NSaved= 3 IEnMin= 3 EnMin= -189.755396048476     IErMin= 3 ErrMin= 4.21D-06
 ErrMax= 4.21D-06  0.00D+00 EMaxC= 1.00D-01 BMatC= 1.03D-09 BMatP= 1.72D-08
 IDIUse=1 WtCom= 1.00D+00 WtEn= 0.00D+00
 Coeff-Com:  0.322D+00 0.193D+00 0.485D+00
 Coeff:      0.322D+00 0.193D+00 0.485D+00
 Gap=     0.290 Goal=   None    Shift=    0.000
 RMSDP=6.59D-07 MaxDP=1.11D-05 DE=-3.88D-08 OVMax= 1.45D-05

 Cycle   9  Pass 1  IDiag  1:
 E= -189.755396049092     Delta-E=       -0.000000000616 Rises=F Damp=F
 DIIS: error= 1.63D-06 at cycle   4 NSaved=   4.
 NSaved= 4 IEnMin= 4 EnMin= -189.755396049092     IErMin= 4 ErrMin= 1.63D-06
 ErrMax= 1.63D-06  0.00D+00 EMaxC= 1.00D-01 BMatC= 2.20D-10 BMatP= 1.03D-09
 IDIUse=1 WtCom= 1.00D+00 WtEn= 0.00D+00
 Coeff-Com:  0.591D-01 0.376D-01 0.323D+00 0.581D+00
 Coeff:      0.591D-01 0.376D-01 0.323D+00 0.581D+00
 Gap=     0.290 Goal=   None    Shift=    0.000
 RMSDP=2.04D-07 MaxDP=3.12D-06 DE=-6.16D-10 OVMax= 3.83D-06

 Cycle  10  Pass 1  IDiag  1:
 E= -189.755396049254     Delta-E=       -0.000000000161 Rises=F Damp=F
 DIIS: error= 1.84D-07 at cycle   5 NSaved=   5.
 NSaved= 5 IEnMin= 5 EnMin= -189.755396049254     IErMin= 5 ErrMin= 1.84D-07
 ErrMax= 1.84D-07  0.00D+00 EMaxC= 1.00D-01 BMatC= 2.23D-12 BMatP= 2.20D-10
 IDIUse=1 WtCom= 1.00D+00 WtEn= 0.00D+00
 Coeff-Com: -0.758D-02-0.532D-02 0.615D-01 0.148D+00 0.804D+00
 Coeff:     -0.758D-02-0.532D-02 0.615D-01 0.148D+00 0.804D+00
 Gap=     0.290 Goal=   None    Shift=    0.000
 RMSDP=3.30D-08 MaxDP=3.25D-07 DE=-1.61D-10 OVMax= 4.13D-07

 Cycle  11  Pass 1  IDiag  1:
 E= -189.755396049254     Delta-E=       -0.000000000001 Rises=F Damp=F
 DIIS: error= 3.98D-08 at cycle   6 NSaved=   6.
 NSaved= 6 IEnMin= 6 EnMin= -189.755396049254     IErMin= 6 ErrMin= 3.98D-08
 ErrMax= 3.98D-08  0.00D+00 EMaxC= 1.00D-01 BMatC= 1.52D-13 BMatP= 2.23D-12
 IDIUse=1 WtCom= 1.00D+00 WtEn= 0.00D+00
 Coeff-Com: -0.442D-02-0.305D-02 0.178D-01 0.443D-01 0.331D+00 0.614D+00
 Coeff:     -0.442D-02-0.305D-02 0.178D-01 0.443D-01 0.331D+00 0.614D+00
 Gap=     0.290 Goal=   None    Shift=    0.000
 RMSDP=7.79D-09 MaxDP=9.45D-08 DE=-5.12D-13 OVMax= 1.09D-07

 SCF Done:  E(RB3LYP) =  -189.755396049     A.U. after   11 cycles
            NFock= 11  Conv=0.78D-08     -V/T= 2.0086
 KE= 1.881291979990D+02 PE=-5.858896184098D+02 EE= 1.381036806254D+02
 Leave Link  502 at Thu Mar 19 18:38:22 2026, MaxMem=   536870912 cpu:         1.0
 (Enter C:\G09W\l701.exe)
 Compute integral first derivatives.
 ... and contract with generalized density number  0.
 Leave Link  701 at Thu Mar 19 18:38:23 2026, MaxMem=   536870912 cpu:         0.0
 (Enter C:\G09W\l702.exe)
 L702 exits ... SP integral derivatives will be done elsewhere.
 Leave Link  702 at Thu Mar 19 18:38:23 2026, MaxMem=   536870912 cpu:         0.0
 (Enter C:\G09W\l703.exe)
 Compute integral first derivatives, UseDBF=F ICtDFT=           0.
 Integral derivatives from FoFJK, PRISM(SPDF).
 Calling FoFJK, ICntrl=      2127 FMM=F ISym2X=0 I1Cent= 0 IOpClX= 0 NMat=1 NMatS=1 NMatT=0.
 FoFJK:  IHMeth= 1 ICntrl=    2127 DoSepK=F KAlg= 0 I1Cent=   0 FoldK=F
 IRaf=         0 NMat=   1 IRICut=       1 DoRegI=T DoRafI=F ISym2E= 0.
 FoFCou: FMM=F IPFlag=           0 FMFlag=      100000 FMFlg1=         800
         NFxFlg=           0 DoJE=F BraDBF=F KetDBF=F FulRan=T
         wScrn=  0.000000 ICntrl=    2127 IOpCl=  0 I1Cent=           0 NGrid=           0
         NMat0=    1 NMatS0=      1 NMatT0=    0 NMatD0=    1 NMtDS0=    0 NMtDT0=    0
 Symmetry not used in FoFCou.
 Leave Link  703 at Thu Mar 19 18:38:24 2026, MaxMem=   536870912 cpu:         1.0
 (Enter C:\G09W\l716.exe)
 Dipole        = 5.66379946D-01 1.04099053D-02-8.66764437D-08
 ***** Axes restored to original set *****
 -------------------------------------------------------------------
 Center     Atomic                   Forces (Hartrees/Bohr)
 Number     Number              X              Y              Z
 -------------------------------------------------------------------
      1        8           0.000395475    0.002948350   -0.000758659
      2        6          -0.002346372    0.005136751   -0.003128595
      3        8           0.001860306   -0.005735955    0.003041275
      4        1           0.000820441   -0.000933506    0.000803091
      5        1          -0.000729850   -0.001415639    0.000042888
 -------------------------------------------------------------------
 Cartesian Forces:  Max     0.005735955 RMS     0.002600562
 Leave Link  716 at Thu Mar 19 18:38:24 2026, MaxMem=   536870912 cpu:         0.0
 (Enter C:\G09W\l103.exe)

 GradGradGradGradGradGradGradGradGradGradGradGradGradGradGradGradGradGrad
 Berny optimization.
 Using GEDIIS/GDIIS optimizer.
 FormGI is forming the generalized inverse of G from B-inverse, IUseBI=4.
 Internal  Forces:  Max     0.006468221 RMS     0.002375389
 Search for a local minimum.
 Step number   2 out of a maximum of   21
 All quantities printed in internal units (Hartrees-Bohrs-Radians)
 RMS Force = .23754D-02 SwitMx=.10000D-02 MixMth= 1
 Mixed Optimization -- RFO/linear search
 Update second derivatives using D2CorX and points    1    2
 DE= -8.49D-04 DEPred=-9.10D-04 R= 9.34D-01
 TightC=F SS=  1.41D+00  RLast= 8.63D-02 DXNew= 5.0454D-01 2.5877D-01
 Trust test= 9.34D-01 RLast= 8.63D-02 DXMaxT set to 3.00D-01
 The second derivative matrix:
                          R1        R2        R3        R4        A1
           R1           0.56698
           R2           0.00047   0.51325
           R3           0.01972  -0.00828   0.88801
           R4          -0.00359   0.00156   0.00001   0.34072
           A1          -0.00790   0.00334   0.02740   0.00127   0.15122
           A2          -0.00135   0.00038   0.05950  -0.01323  -0.02469
           A3          -0.00600   0.00264  -0.00947   0.00839   0.00614
           A4          -0.00923   0.00402  -0.00319   0.01012   0.00463
           D1           0.00000   0.00000   0.00000   0.00000   0.00000
           D2           0.00000   0.00000   0.00000   0.00000   0.00000
           D3           0.00000   0.00000   0.00000   0.00000   0.00000
                          A2        A3        A4        D1        D2
           A2           0.25468
           A3          -0.02366   0.17830
           A4          -0.03456   0.02303   0.18810
           D1           0.00000   0.00000   0.00000   0.02463
           D2           0.00000   0.00000   0.00000   0.00000   0.02463
           D3           0.00000   0.00000   0.00000   0.00000   0.00000
                          D3
           D3           0.04119
 ITU=  1  0
 Use linear search instead of GDIIS.
     Eigenvalues ---    0.02463   0.03663   0.14390   0.16009   0.27392
     Eigenvalues ---    0.34559   0.51313   0.56611   0.89496
 RFO step:  Lambda=-1.28449051D-04 EMin= 2.46270982D-02
 Quartic linear search produced a step of -0.04733.
 Iteration  1 RMS(Cart)=  0.00734864 RMS(Int)=  0.00005841
 Iteration  2 RMS(Cart)=  0.00005129 RMS(Int)=  0.00000000
 Iteration  3 RMS(Cart)=  0.00000000 RMS(Int)=  0.00000001
 ITry= 1 IFail=0 DXMaxC= 1.34D-02 DCOld= 1.00D+10 DXMaxT= 3.00D-01 DXLimC= 3.00D+00 Rises=F
 Variable       Old X    -DE/DX   Delta X   Delta X   Delta X     New X
                                 (Linear)    (Quad)   (Total)
    R1        2.54438   0.00011  -0.00042   0.00123   0.00081   2.54519
    R2        1.84816  -0.00002   0.00020  -0.00054  -0.00034   1.84782
    R3        2.28418  -0.00647   0.00070  -0.00810  -0.00740   2.27678
    R4        2.07346   0.00148   0.00023   0.00362   0.00384   2.07731
    A1        1.84674   0.00274  -0.00126   0.01941   0.01815   1.86489
    A2        2.19196  -0.00255  -0.00309  -0.00339  -0.00648   2.18548
    A3        1.91220   0.00067   0.00159  -0.00203  -0.00044   1.91177
    A4        2.17903   0.00188   0.00150   0.00542   0.00691   2.18594
    D1        0.00000   0.00000   0.00000   0.00000   0.00000   0.00000
    D2        3.14159   0.00000   0.00000   0.00000   0.00000   3.14159
    D3        3.14159   0.00000   0.00000   0.00000   0.00000   3.14159
         Item               Value     Threshold  Converged?
 Maximum Force            0.006468     0.000450     NO 
 RMS     Force            0.002375     0.000300     NO 
 Maximum Displacement     0.013356     0.001800     NO 
 RMS     Displacement     0.007331     0.001200     NO 
 Predicted change in Energy=-6.636003D-05
 Lowest energy point so far.  Saving SCF results.
 GradGradGradGradGradGradGradGradGradGradGradGradGradGradGradGradGradGrad

 Leave Link  103 at Thu Mar 19 18:38:24 2026, MaxMem=   536870912 cpu:         0.0
 (Enter C:\G09W\l202.exe)
                          Input orientation:                          
 ---------------------------------------------------------------------
 Center     Atomic      Atomic             Coordinates (Angstroms)
 Number     Number       Type             X           Y           Z
 ---------------------------------------------------------------------
      1          8           0        0.613880   -0.534609    0.516376
      2          6           0       -0.363037   -0.004052   -0.243997
      3          8           0       -0.392359    1.131892   -0.644448
      4          1           0        1.270762    0.173540    0.668609
      5          1           0       -1.129245   -0.766772   -0.442905
 ---------------------------------------------------------------------
                    Distance matrix (angstroms):
                    1          2          3          4          5
     1  O    0.000000
     2  C    1.346857   0.000000
     3  O    2.266551   1.204819   0.000000
     4  H    0.977826   1.879811   2.325624   0.000000
     5  H    2.003148   1.099264   2.046593   2.807077   0.000000
 Stoichiometry    CH2O2
 Framework group  C1[X(CH2O2)]
 Deg. of freedom     9
 Full point group                 C1      NOp   1
 RotChk:  IX=0 Diff= 5.12D-03
 Largest Abelian subgroup         C1      NOp   1
 Largest concise Abelian subgroup C1      NOp   1
                         Standard orientation:                         
 ---------------------------------------------------------------------
 Center     Atomic      Atomic             Coordinates (Angstroms)
 Number     Number       Type             X           Y           Z
 ---------------------------------------------------------------------
      1          8           0        1.120854   -0.091226    0.000000
      2          6           0       -0.133198    0.400078    0.000000
      3          8           0       -1.139184   -0.262930    0.000000
      4          1           0        1.043392   -1.065980    0.000000
      5          1           0       -0.097561    1.498764    0.000000
 ---------------------------------------------------------------------
 Rotational constants (GHZ):     77.4925317     11.9770880     10.3737433
 Leave Link  202 at Thu Mar 19 18:38:24 2026, MaxMem=   536870912 cpu:         0.0
 (Enter C:\G09W\l301.exe)
 Standard basis: 6-31G(d) (6D, 7F)
 Ernie: Thresh=  0.10000D-02 Tol=  0.10000D-05 Strict=F.
 There are    49 symmetry adapted cartesian basis functions of A   symmetry.
 There are    49 symmetry adapted basis functions of A   symmetry.
    49 basis functions,    92 primitive gaussians,    49 cartesian basis functions
    12 alpha electrons       12 beta electrons
       nuclear repulsion energy        69.9813180299 Hartrees.
 IExCor=  402 DFT=T Ex+Corr=B3LYP ExCW=0 ScaHFX=  0.200000
 ScaDFX=  0.800000  0.720000  1.000000  0.810000 ScalE2=  1.000000  1.000000
 IRadAn=      0 IRanWt=     -1 IRanGd=            0 ICorTp=0 IEmpDi=  4
 NAtoms=    5 NActive=    5 NUniq=    5 SFac= 1.00D+00 NAtFMM=   60 NAOKFM=F Big=F
 Integral buffers will be    131072 words long.
 Raffenetti 2 integral format.
 Two-electron integral symmetry is turned on.
 Leave Link  301 at Thu Mar 19 18:38:25 2026, MaxMem=   536870912 cpu:         0.0
 (Enter C:\G09W\l302.exe)
 NPDir=0 NMtPBC=     1 NCelOv=     1 NCel=       1 NClECP=     1 NCelD=      1
         NCelK=      1 NCelE2=     1 NClLst=     1 CellRange=     0.0.
 One-electron integrals computed using PRISM.
 NBasis=    49 RedAO= T EigKep=  6.05D-03  NBF=    49
 NBsUse=    49 1.00D-06 EigRej= -1.00D+00 NBFU=    49
 Precomputing XC quadrature grid using
 IXCGrd= 4 IRadAn=           0 IRanWt=          -1 IRanGd=           0 AccXCQ= 0.00D+00.
 Generated NRdTot=       0 NPtTot=           0 NUsed=           0 NTot=          32
 NSgBfM=    49    49    49    49    49 MxSgAt=     5 MxSgA2=     5.
 Leave Link  302 at Thu Mar 19 18:38:25 2026, MaxMem=   536870912 cpu:         0.0
 (Enter C:\G09W\l303.exe)
 DipDrv:  MaxL=1.
 Leave Link  303 at Thu Mar 19 18:38:25 2026, MaxMem=   536870912 cpu:         0.0
 (Enter C:\G09W\l401.exe)
 Initial guess from the checkpoint file:  "formic_acid_rdkit.chk"
 B after Tr=     0.000000    0.000000    0.000000
         Rot=    0.999999    0.000000    0.000000   -0.001272 Ang=  -0.15 deg.
 Guess basis will be translated and rotated to current coordinates.
 JPrj=2 DoOrth=T DoCkMO=T.
 Leave Link  401 at Thu Mar 19 18:38:25 2026, MaxMem=   536870912 cpu:         0.0
 (Enter C:\G09W\l502.exe)
 Closed shell SCF:
 Using DIIS extrapolation, IDIIS=  1040.
 Integral symmetry usage will be decided dynamically.
 Keep R1 ints in memory in canonical form, NReq=1646259.
 IVT=       26416 IEndB=       26416 NGot=   536870912 MDV=   536093572
 LenX=   536093572 LenY=   536090730
 Requested convergence on RMS density matrix=1.00D-08 within 128 cycles.
 Requested convergence on MAX density matrix=1.00D-06.
 Requested convergence on             energy=1.00D-06.
 No special actions if energy rises.
 FoFCou: FMM=F IPFlag=           0 FMFlag=           0 FMFlg1=           0
         NFxFlg=           0 DoJE=F BraDBF=F KetDBF=F FulRan=T
         wScrn=  0.000000 ICntrl=     600 IOpCl=  0 I1Cent=           0 NGrid=           0
         NMat0=    1 NMatS0=   1225 NMatT0=    0 NMatD0=    1 NMtDS0=    0 NMtDT0=    0
 Symmetry not used in FoFCou.

 Cycle   1  Pass 1  IDiag  1:
 E= -189.755418131443    
 DIIS: error= 7.76D-04 at cycle   1 NSaved=   1.
 NSaved= 1 IEnMin= 1 EnMin= -189.755418131443     IErMin= 1 ErrMin= 7.76D-04
 ErrMax= 7.76D-04  0.00D+00 EMaxC= 1.00D-01 BMatC= 2.88D-05 BMatP= 2.88D-05
 IDIUse=3 WtCom= 9.92D-01 WtEn= 7.76D-03
 Coeff-Com:  0.100D+01
 Coeff-En:   0.100D+01
 Coeff:      0.100D+01
 Gap=     1.483 Goal=   None    Shift=    0.000
 RMSDP=1.82D-04 MaxDP=1.81D-03              OVMax= 1.86D-03

 Cycle   2  Pass 1  IDiag  1:
 E= -189.755454564201     Delta-E=       -0.000036432759 Rises=F Damp=F
 DIIS: error= 1.94D-04 at cycle   2 NSaved=   2.
 NSaved= 2 IEnMin= 2 EnMin= -189.755454564201     IErMin= 2 ErrMin= 1.94D-04
 ErrMax= 1.94D-04  0.00D+00 EMaxC= 1.00D-01 BMatC= 3.14D-06 BMatP= 2.88D-05
 IDIUse=3 WtCom= 9.98D-01 WtEn= 1.94D-03
 Coeff-Com:  0.134D+00 0.866D+00
 Coeff-En:   0.000D+00 0.100D+01
 Coeff:      0.133D+00 0.867D+00
 Gap=     0.290 Goal=   None    Shift=    0.000
 RMSDP=5.96D-05 MaxDP=1.05D-03 DE=-3.64D-05 OVMax= 1.29D-03

 Cycle   3  Pass 1  IDiag  1:
 E= -189.755451344050     Delta-E=        0.000003220152 Rises=F Damp=F
 DIIS: error= 2.82D-04 at cycle   3 NSaved=   3.
 NSaved= 3 IEnMin= 2 EnMin= -189.755454564201     IErMin= 2 ErrMin= 1.94D-04
 ErrMax= 2.82D-04  0.00D+00 EMaxC= 1.00D-01 BMatC= 7.45D-06 BMatP= 3.14D-06
 IDIUse=3 WtCom= 3.73D-01 WtEn= 6.27D-01
 Coeff-Com: -0.441D-02 0.612D+00 0.392D+00
 Coeff-En:   0.000D+00 0.672D+00 0.328D+00
 Coeff:     -0.165D-02 0.650D+00 0.352D+00
 Gap=     0.291 Goal=   None    Shift=    0.000
 RMSDP=3.93D-05 MaxDP=6.24D-04 DE= 3.22D-06 OVMax= 9.30D-04

 Cycle   4  Pass 1  IDiag  1:
 E= -189.755456820972     Delta-E=       -0.000005476922 Rises=F Damp=F
 DIIS: error= 3.33D-05 at cycle   4 NSaved=   4.
 NSaved= 4 IEnMin= 4 EnMin= -189.755456820972     IErMin= 4 ErrMin= 3.33D-05
 ErrMax= 3.33D-05  0.00D+00 EMaxC= 1.00D-01 BMatC= 7.32D-08 BMatP= 3.14D-06
 IDIUse=1 WtCom= 1.00D+00 WtEn= 0.00D+00
 Coeff-Com: -0.918D-02 0.217D+00 0.118D+00 0.673D+00
 Coeff:     -0.918D-02 0.217D+00 0.118D+00 0.673D+00
 Gap=     0.291 Goal=   None    Shift=    0.000
 RMSDP=5.50D-06 MaxDP=8.52D-05 DE=-5.48D-06 OVMax= 8.33D-05

 Cycle   5  Pass 1  IDiag  1:
 E= -189.755456858365     Delta-E=       -0.000000037393 Rises=F Damp=F
 DIIS: error= 1.89D-05 at cycle   5 NSaved=   5.
 NSaved= 5 IEnMin= 5 EnMin= -189.755456858365     IErMin= 5 ErrMin= 1.89D-05
 ErrMax= 1.89D-05  0.00D+00 EMaxC= 1.00D-01 BMatC= 2.60D-08 BMatP= 7.32D-08
 IDIUse=1 WtCom= 1.00D+00 WtEn= 0.00D+00
 Coeff-Com: -0.611D-02 0.695D-01 0.357D-01 0.394D+00 0.507D+00
 Coeff:     -0.611D-02 0.695D-01 0.357D-01 0.394D+00 0.507D+00
 Gap=     0.291 Goal=   None    Shift=    0.000
 RMSDP=2.10D-06 MaxDP=3.90D-05 DE=-3.74D-08 OVMax= 4.17D-05

 Cycle   6  Pass 1  IDiag  1:
 E= -189.755456875764     Delta-E=       -0.000000017399 Rises=F Damp=F
 DIIS: error= 2.46D-06 at cycle   6 NSaved=   6.
 NSaved= 6 IEnMin= 6 EnMin= -189.755456875764     IErMin= 6 ErrMin= 2.46D-06
 ErrMax= 2.46D-06  0.00D+00 EMaxC= 1.00D-01 BMatC= 5.74D-10 BMatP= 2.60D-08
 IDIUse=1 WtCom= 1.00D+00 WtEn= 0.00D+00
 Coeff-Com: -0.166D-02 0.126D-01 0.565D-02 0.108D+00 0.201D+00 0.675D+00
 Coeff:     -0.166D-02 0.126D-01 0.565D-02 0.108D+00 0.201D+00 0.675D+00
 Gap=     0.291 Goal=   None    Shift=    0.000
 RMSDP=4.93D-07 MaxDP=5.98D-06 DE=-1.74D-08 OVMax= 7.95D-06

 Cycle   7  Pass 1  IDiag  1:
 E= -189.755456876225     Delta-E=       -0.000000000461 Rises=F Damp=F
 DIIS: error= 6.72D-07 at cycle   7 NSaved=   7.
 NSaved= 7 IEnMin= 7 EnMin= -189.755456876225     IErMin= 7 ErrMin= 6.72D-07
 ErrMax= 6.72D-07  0.00D+00 EMaxC= 1.00D-01 BMatC= 4.13D-11 BMatP= 5.74D-10
 IDIUse=1 WtCom= 1.00D+00 WtEn= 0.00D+00
 Coeff-Com: -0.367D-04-0.115D-02-0.146D-02 0.380D-02 0.221D-01 0.247D+00
 Coeff-Com:  0.730D+00
 Coeff:     -0.367D-04-0.115D-02-0.146D-02 0.380D-02 0.221D-01 0.247D+00
 Coeff:      0.730D+00
 Gap=     0.291 Goal=   None    Shift=    0.000
 RMSDP=1.21D-07 MaxDP=1.12D-06 DE=-4.61D-10 OVMax= 1.58D-06

 Cycle   8  Pass 1  IDiag  1:
 E= -189.755456876265     Delta-E=       -0.000000000040 Rises=F Damp=F
 DIIS: error= 9.30D-08 at cycle   8 NSaved=   8.
 NSaved= 8 IEnMin= 8 EnMin= -189.755456876265     IErMin= 8 ErrMin= 9.30D-08
 ErrMax= 9.30D-08  0.00D+00 EMaxC= 1.00D-01 BMatC= 6.26D-13 BMatP= 4.13D-11
 IDIUse=1 WtCom= 1.00D+00 WtEn= 0.00D+00
 Coeff-Com:  0.336D-04-0.571D-03-0.621D-03-0.183D-02-0.170D-02 0.331D-01
 Coeff-Com:  0.137D+00 0.834D+00
 Coeff:      0.336D-04-0.571D-03-0.621D-03-0.183D-02-0.170D-02 0.331D-01
 Coeff:      0.137D+00 0.834D+00
 Gap=     0.291 Goal=   None    Shift=    0.000
 RMSDP=1.54D-08 MaxDP=1.18D-07 DE=-3.97D-11 OVMax= 2.04D-07

 Cycle   9  Pass 1  IDiag  1:
 E= -189.755456876264     Delta-E=        0.000000000001 Rises=F Damp=F
 DIIS: error= 8.03D-09 at cycle   9 NSaved=   9.
 NSaved= 9 IEnMin= 8 EnMin= -189.755456876265     IErMin= 9 ErrMin= 8.03D-09
 ErrMax= 8.03D-09  0.00D+00 EMaxC= 1.00D-01 BMatC= 5.54D-15 BMatP= 6.26D-13
 IDIUse=1 WtCom= 1.00D+00 WtEn= 0.00D+00
 Coeff-Com:  0.621D-05-0.673D-04-0.815D-04-0.372D-03-0.778D-03 0.917D-03
 Coeff-Com:  0.894D-02 0.137D+00 0.855D+00
 Coeff:      0.621D-05-0.673D-04-0.815D-04-0.372D-03-0.778D-03 0.917D-03
 Coeff:      0.894D-02 0.137D+00 0.855D+00
 Gap=     0.291 Goal=   None    Shift=    0.000
 RMSDP=1.73D-09 MaxDP=1.38D-08 DE= 1.02D-12 OVMax= 2.44D-08

 SCF Done:  E(RB3LYP) =  -189.755456876     A.U. after    9 cycles
            NFock=  9  Conv=0.17D-08     -V/T= 2.0086
 KE= 1.881389999726D+02 PE=-5.860670283210D+02 EE= 1.381912534423D+02
 Leave Link  502 at Thu Mar 19 18:38:27 2026, MaxMem=   536870912 cpu:         1.0
 (Enter C:\G09W\l701.exe)
 Compute integral first derivatives.
 ... and contract with generalized density number  0.
 Leave Link  701 at Thu Mar 19 18:38:27 2026, MaxMem=   536870912 cpu:         0.0
 (Enter C:\G09W\l702.exe)
 L702 exits ... SP integral derivatives will be done elsewhere.
 Leave Link  702 at Thu Mar 19 18:38:28 2026, MaxMem=   536870912 cpu:         0.0
 (Enter C:\G09W\l703.exe)
 Compute integral first derivatives, UseDBF=F ICtDFT=           0.
 Integral derivatives from FoFJK, PRISM(SPDF).
 Calling FoFJK, ICntrl=      2127 FMM=F ISym2X=0 I1Cent= 0 IOpClX= 0 NMat=1 NMatS=1 NMatT=0.
 FoFJK:  IHMeth= 1 ICntrl=    2127 DoSepK=F KAlg= 0 I1Cent=   0 FoldK=F
 IRaf=         0 NMat=   1 IRICut=       1 DoRegI=T DoRafI=F ISym2E= 0.
 FoFCou: FMM=F IPFlag=           0 FMFlag=      100000 FMFlg1=         800
         NFxFlg=           0 DoJE=F BraDBF=F KetDBF=F FulRan=T
         wScrn=  0.000000 ICntrl=    2127 IOpCl=  0 I1Cent=           0 NGrid=           0
         NMat0=    1 NMatS0=      1 NMatT0=    0 NMatD0=    1 NMtDS0=    0 NMtDT0=    0
 Symmetry not used in FoFCou.
 Leave Link  703 at Thu Mar 19 18:38:29 2026, MaxMem=   536870912 cpu:         1.0
 (Enter C:\G09W\l716.exe)
 Dipole        = 5.64432697D-01 1.10479248D-02 1.53463503D-08
 ***** Axes restored to original set *****
 -------------------------------------------------------------------
 Center     Atomic                   Forces (Hartrees/Bohr)
 Number     Number              X              Y              Z
 -------------------------------------------------------------------
      1        8           0.000319531   -0.000390018    0.000321693
      2        6          -0.000012420    0.000888795   -0.000307063
      3        8           0.000132739    0.000080980    0.000051707
      4        1          -0.000583541   -0.000113356   -0.000309120
      5        1           0.000143691   -0.000466401    0.000242783
 -------------------------------------------------------------------
 Cartesian Forces:  Max     0.000888795 RMS     0.000366515
 Leave Link  716 at Thu Mar 19 18:38:29 2026, MaxMem=   536870912 cpu:         0.0
 (Enter C:\G09W\l103.exe)

 GradGradGradGradGradGradGradGradGradGradGradGradGradGradGradGradGradGrad
 Berny optimization.
 Using GEDIIS/GDIIS optimizer.
 FormGI is forming the generalized inverse of G from B-inverse, IUseBI=4.
 Internal  Forces:  Max     0.000768551 RMS     0.000367049
 Search for a local minimum.
 Step number   3 out of a maximum of   21
 All quantities printed in internal units (Hartrees-Bohrs-Radians)
 RMS Force = .36705D-03 SwitMx=.10000D-02 MixMth= 2
 Mixed Optimization -- En-DIIS/RFO-DIIS
 Update second derivatives using D2CorX and points    1    2    3
 DE= -6.08D-05 DEPred=-6.64D-05 R= 9.17D-01
 TightC=F SS=  1.41D+00  RLast= 2.21D-02 DXNew= 5.0454D-01 6.6389D-02
 Trust test= 9.17D-01 RLast= 2.21D-02 DXMaxT set to 3.00D-01
 The second derivative matrix:
                          R1        R2        R3        R4        A1
           R1           0.56668
           R2           0.00230   0.51391
           R3           0.02238  -0.03620   0.86337
           R4          -0.00463   0.00600   0.01415   0.33668
           A1          -0.00645   0.01659  -0.00181   0.00144   0.18310
           A2          -0.00047  -0.00530   0.04602  -0.00866  -0.02696
           A3          -0.00313   0.00414  -0.05254   0.01500   0.02729
           A4          -0.01030   0.00725   0.01298   0.00609   0.00217
           D1           0.00000   0.00000   0.00000   0.00000   0.00000
           D2           0.00000   0.00000   0.00000   0.00000   0.00000
           D3           0.00000   0.00000   0.00000   0.00000   0.00000
                          A2        A3        A4        D1        D2
           A2           0.24914
           A3          -0.03201   0.18131
           A4          -0.02962   0.02764   0.18422
           D1           0.00000   0.00000   0.00000   0.02463
           D2           0.00000   0.00000   0.00000   0.00000   0.02463
           D3           0.00000   0.00000   0.00000   0.00000   0.00000
                          D3
           D3           0.04119
 ITU=  1  1  0
 Use linear search instead of GDIIS.
     Eigenvalues ---    0.02463   0.03667   0.14089   0.18188   0.27865
     Eigenvalues ---    0.34085   0.51130   0.56577   0.87684
 RFO step:  Lambda=-6.01801870D-06 EMin= 2.46270982D-02
 Quartic linear search produced a step of -0.07507.
 Iteration  1 RMS(Cart)=  0.00220819 RMS(Int)=  0.00000228
 Iteration  2 RMS(Cart)=  0.00000227 RMS(Int)=  0.00000000
 Iteration  3 RMS(Cart)=  0.00000000 RMS(Int)=  0.00000000
 ITry= 1 IFail=0 DXMaxC= 4.20D-03 DCOld= 1.00D+10 DXMaxT= 3.00D-01 DXLimC= 3.00D+00 Rises=F
 Variable       Old X    -DE/DX   Delta X   Delta X   Delta X     New X
                                 (Linear)    (Quad)   (Total)
    R1        2.54519   0.00002  -0.00006   0.00011   0.00004   2.54524
    R2        1.84782  -0.00053   0.00003  -0.00097  -0.00095   1.84688
    R3        2.27678   0.00006   0.00056  -0.00080  -0.00024   2.27654
    R4        2.07731   0.00018  -0.00029   0.00095   0.00066   2.07797
    A1        1.86489  -0.00077  -0.00136  -0.00231  -0.00368   1.86121
    A2        2.18548   0.00011   0.00049  -0.00041   0.00008   2.18555
    A3        1.91177  -0.00059   0.00003  -0.00326  -0.00323   1.90854
    A4        2.18594   0.00047  -0.00052   0.00367   0.00315   2.18909
    D1        0.00000   0.00000   0.00000   0.00000   0.00000   0.00000
    D2        3.14159   0.00000   0.00000   0.00000   0.00000   3.14159
    D3        3.14159   0.00000   0.00000   0.00000   0.00000   3.14159
         Item               Value     Threshold  Converged?
 Maximum Force            0.000769     0.000450     NO 
 RMS     Force            0.000367     0.000300     NO 
 Maximum Displacement     0.004203     0.001800     NO 
 RMS     Displacement     0.002209     0.001200     NO 
 Predicted change in Energy=-3.407614D-06
 Lowest energy point so far.  Saving SCF results.
 GradGradGradGradGradGradGradGradGradGradGradGradGradGradGradGradGradGrad

 Leave Link  103 at Thu Mar 19 18:38:29 2026, MaxMem=   536870912 cpu:         0.0
 (Enter C:\G09W\l202.exe)
                          Input orientation:                          
 ---------------------------------------------------------------------
 Center     Atomic      Atomic             Coordinates (Angstroms)
 Number     Number       Type             X           Y           Z
 ---------------------------------------------------------------------
      1          8           0        0.613329   -0.535387    0.516311
      2          6           0       -0.362817   -0.003390   -0.244089
      3          8           0       -0.390943    1.132684   -0.643872
      4          1           0        1.268538    0.173917    0.667159
      5          1           0       -1.128108   -0.767824   -0.441873
 ---------------------------------------------------------------------
                    Distance matrix (angstroms):
                    1          2          3          4          5
     1  O    0.000000
     2  C    1.346881   0.000000
     3  O    2.266505   1.204692   0.000000
     4  H    0.977325   1.876999   2.322049   0.000000
     5  H    2.001186   1.099613   2.048450   2.803701   0.000000
 Stoichiometry    CH2O2
 Framework group  CS[SG(CH2O2)]
 Deg. of freedom     7
 Full point group                 CS      NOp   2
 Omega: Change in point group or standard orientation.

 Old FWG=C01  [X(C1H2O2)]
 New FWG=CS   [SG(C1H2O2)]
 RotChk:  IX=2 Diff= 4.54D-01
 Largest Abelian subgroup         CS      NOp   2
 Largest concise Abelian subgroup C1      NOp   1
                         Standard orientation:                         
 ---------------------------------------------------------------------
 Center     Atomic      Atomic             Coordinates (Angstroms)
 Number     Number       Type             X           Y           Z
 ---------------------------------------------------------------------
      1          8           0        1.034555   -0.440836    0.000000
      2          6           0        0.000000    0.421593    0.000000
      3          8           0       -1.163852    0.110576    0.000000
      4          1           0        0.649926   -1.339293    0.000000
      5          1           0        0.384451    1.451810    0.000000
 ---------------------------------------------------------------------
 Rotational constants (GHZ):     77.5237150     11.9795819     10.3761730
 Leave Link  202 at Thu Mar 19 18:38:29 2026, MaxMem=   536870912 cpu:         0.0
 (Enter C:\G09W\l301.exe)
 Standard basis: 6-31G(d) (6D, 7F)
 Ernie: Thresh=  0.10000D-02 Tol=  0.10000D-05 Strict=F.
 There are    37 symmetry adapted cartesian basis functions of A'  symmetry.
 There are    12 symmetry adapted cartesian basis functions of A"  symmetry.
 There are    37 symmetry adapted basis functions of A'  symmetry.
 There are    12 symmetry adapted basis functions of A"  symmetry.
    49 basis functions,    92 primitive gaussians,    49 cartesian basis functions
    12 alpha electrons       12 beta electrons
       nuclear repulsion energy        69.9905668500 Hartrees.
 IExCor=  402 DFT=T Ex+Corr=B3LYP ExCW=0 ScaHFX=  0.200000
 ScaDFX=  0.800000  0.720000  1.000000  0.810000 ScalE2=  1.000000  1.000000
 IRadAn=      0 IRanWt=     -1 IRanGd=            0 ICorTp=0 IEmpDi=  4
 NAtoms=    5 NActive=    5 NUniq=    5 SFac= 1.00D+00 NAtFMM=   60 NAOKFM=F Big=F
 Integral buffers will be    131072 words long.
 Raffenetti 2 integral format.
 Two-electron integral symmetry is turned on.
 Leave Link  301 at Thu Mar 19 18:38:29 2026, MaxMem=   536870912 cpu:         0.0
 (Enter C:\G09W\l302.exe)
 NPDir=0 NMtPBC=     1 NCelOv=     1 NCel=       1 NClECP=     1 NCelD=      1
         NCelK=      1 NCelE2=     1 NClLst=     1 CellRange=     0.0.
 One-electron integrals computed using PRISM.
 NBasis=    49 RedAO= T EigKep=  8.54D-03  NBF=    37    12
 NBsUse=    49 1.00D-06 EigRej= -1.00D+00 NBFU=    37    12
 Precomputing XC quadrature grid using
 IXCGrd= 4 IRadAn=           0 IRanWt=          -1 IRanGd=           0 AccXCQ= 0.00D+00.
 Generated NRdTot=       0 NPtTot=           0 NUsed=           0 NTot=          32
 NSgBfM=    49    49    49    49    49 MxSgAt=     5 MxSgA2=     5.
 Leave Link  302 at Thu Mar 19 18:38:30 2026, MaxMem=   536870912 cpu:         1.0
 (Enter C:\G09W\l303.exe)
 DipDrv:  MaxL=1.
 Leave Link  303 at Thu Mar 19 18:38:30 2026, MaxMem=   536870912 cpu:         0.0
 (Enter C:\G09W\l401.exe)
 Initial guess from the checkpoint file:  "formic_acid_rdkit.chk"
 B after Tr=     0.000000    0.000000    0.000000
         Rot=    0.987078    0.000000    0.000000    0.160244 Ang=  18.44 deg.
 Guess basis will be translated and rotated to current coordinates.
 JPrj=2 DoOrth=T DoCkMO=T.
 Initial guess orbital symmetries:
       Occupied  (A') (A') (A') (A') (A') (A') (A') (A') (A") (A')
                 (A") (A')
       Virtual   (A') (A') (A') (A') (A') (A') (A') (A') (A') (A')
                 (A') (A') (A') (A') (A') (A') (A') (A') (A') (A')
                 (A') (A') (A') (A') (A') (A') (A') (A") (A") (A")
                 (A") (A") (A") (A") (A") (A") (A")
 The electronic state of the initial guess is 1-A'.
 Leave Link  401 at Thu Mar 19 18:38:30 2026, MaxMem=   536870912 cpu:         0.0
 (Enter C:\G09W\l502.exe)
 Closed shell SCF:
 Using DIIS extrapolation, IDIIS=  1040.
 Integral symmetry usage will be decided dynamically.
 Keep R1 ints in memory in symmetry-blocked form, NReq=1649366.
 IVT=       26436 IEndB=       26436 NGot=   536870912 MDV=   536437229
 LenX=   536437229 LenY=   536434387
 Requested convergence on RMS density matrix=1.00D-08 within 128 cycles.
 Requested convergence on MAX density matrix=1.00D-06.
 Requested convergence on             energy=1.00D-06.
 No special actions if energy rises.
 FoFCou: FMM=F IPFlag=           0 FMFlag=           0 FMFlg1=           0
         NFxFlg=           0 DoJE=F BraDBF=F KetDBF=F FulRan=T
         wScrn=  0.000000 ICntrl=     600 IOpCl=  0 I1Cent=           0 NGrid=           0
         NMat0=    1 NMatS0=   1225 NMatT0=    0 NMatD0=    1 NMtDS0=    0 NMtDT0=    0
 Petite list used in FoFCou.

 Cycle   1  Pass 1  IDiag  1:
 E= -189.755456418753    
 DIIS: error= 1.28D-04 at cycle   1 NSaved=   1.
 NSaved= 1 IEnMin= 1 EnMin= -189.755456418753     IErMin= 1 ErrMin= 1.28D-04
 ErrMax= 1.28D-04  0.00D+00 EMaxC= 1.00D-01 BMatC= 1.00D-06 BMatP= 1.00D-06
 IDIUse=3 WtCom= 9.99D-01 WtEn= 1.28D-03
 Coeff-Com:  0.100D+01
 Coeff-En:   0.100D+01
 Coeff:      0.100D+01
 Gap=     1.020 Goal=   None    Shift=    0.000
 RMSDP=3.29D-05 MaxDP=3.90D-04              OVMax= 3.18D-04

 Cycle   2  Pass 1  IDiag  1:
 E= -189.755457522944     Delta-E=       -0.000001104191 Rises=F Damp=F
 DIIS: error= 5.38D-05 at cycle   2 NSaved=   2.
 NSaved= 2 IEnMin= 2 EnMin= -189.755457522944     IErMin= 2 ErrMin= 5.38D-05
 ErrMax= 5.38D-05  0.00D+00 EMaxC= 1.00D-01 BMatC= 2.31D-07 BMatP= 1.00D-06
 IDIUse=1 WtCom= 1.00D+00 WtEn= 0.00D+00
 Coeff-Com:  0.233D+00 0.767D+00
 Coeff:      0.233D+00 0.767D+00
 Gap=     0.291 Goal=   None    Shift=    0.000
 RMSDP=1.59D-05 MaxDP=2.58D-04 DE=-1.10D-06 OVMax= 3.67D-04

 Cycle   3  Pass 1  IDiag  1:
 E= -189.755457370540     Delta-E=        0.000000152404 Rises=F Damp=F
 DIIS: error= 7.14D-05 at cycle   3 NSaved=   3.
 NSaved= 3 IEnMin= 2 EnMin= -189.755457522944     IErMin= 2 ErrMin= 5.38D-05
 ErrMax= 7.14D-05  0.00D+00 EMaxC= 1.00D-01 BMatC= 4.26D-07 BMatP= 2.31D-07
 IDIUse=1 WtCom= 1.00D+00 WtEn= 0.00D+00
 Coeff-Com:  0.124D-01 0.573D+00 0.414D+00
 Coeff:      0.124D-01 0.573D+00 0.414D+00
 Gap=     0.291 Goal=   None    Shift=    0.000
 RMSDP=1.05D-05 MaxDP=1.66D-04 DE= 1.52D-07 OVMax= 2.61D-04

 Cycle   4  Pass 1  IDiag  1:
 E= -189.755457687735     Delta-E=       -0.000000317195 Rises=F Damp=F
 DIIS: error= 9.46D-06 at cycle   4 NSaved=   4.
 NSaved= 4 IEnMin= 4 EnMin= -189.755457687735     IErMin= 4 ErrMin= 9.46D-06
 ErrMax= 9.46D-06  0.00D+00 EMaxC= 1.00D-01 BMatC= 7.35D-09 BMatP= 2.31D-07
 IDIUse=1 WtCom= 1.00D+00 WtEn= 0.00D+00
 Coeff-Com: -0.119D-01 0.203D+00 0.199D+00 0.609D+00
 Coeff:     -0.119D-01 0.203D+00 0.199D+00 0.609D+00
 Gap=     0.291 Goal=   None    Shift=    0.000
 RMSDP=1.35D-06 MaxDP=2.02D-05 DE=-3.17D-07 OVMax= 2.56D-05

 Cycle   5  Pass 1  IDiag  1:
 E= -189.755457692872     Delta-E=       -0.000000005137 Rises=F Damp=F
 DIIS: error= 3.52D-06 at cycle   5 NSaved=   5.
 NSaved= 5 IEnMin= 5 EnMin= -189.755457692872     IErMin= 5 ErrMin= 3.52D-06
 ErrMax= 3.52D-06  0.00D+00 EMaxC= 1.00D-01 BMatC= 6.57D-10 BMatP= 7.35D-09
 IDIUse=1 WtCom= 1.00D+00 WtEn= 0.00D+00
 Coeff-Com: -0.712D-02 0.746D-01 0.867D-01 0.326D+00 0.519D+00
 Coeff:     -0.712D-02 0.746D-01 0.867D-01 0.326D+00 0.519D+00
 Gap=     0.291 Goal=   None    Shift=    0.000
 RMSDP=3.62D-07 MaxDP=6.22D-06 DE=-5.14D-09 OVMax= 6.98D-06

 Cycle   6  Pass 1  IDiag  1:
 E= -189.755457693304     Delta-E=       -0.000000000433 Rises=F Damp=F
 DIIS: error= 6.26D-07 at cycle   6 NSaved=   6.
 NSaved= 6 IEnMin= 6 EnMin= -189.755457693304     IErMin= 6 ErrMin= 6.26D-07
 ErrMax= 6.26D-07  0.00D+00 EMaxC= 1.00D-01 BMatC= 3.55D-11 BMatP= 6.57D-10
 IDIUse=1 WtCom= 1.00D+00 WtEn= 0.00D+00
 Coeff-Com: -0.214D-02 0.172D-01 0.246D-01 0.937D-01 0.238D+00 0.629D+00
 Coeff:     -0.214D-02 0.172D-01 0.246D-01 0.937D-01 0.238D+00 0.629D+00
 Gap=     0.291 Goal=   None    Shift=    0.000
 RMSDP=1.10D-07 MaxDP=1.31D-06 DE=-4.33D-10 OVMax= 1.79D-06

 Cycle   7  Pass 1  IDiag  1:
 E= -189.755457693330     Delta-E=       -0.000000000026 Rises=F Damp=F
 DIIS: error= 1.80D-07 at cycle   7 NSaved=   7.
 NSaved= 7 IEnMin= 7 EnMin= -189.755457693330     IErMin= 7 ErrMin= 1.80D-07
 ErrMax= 1.80D-07  0.00D+00 EMaxC= 1.00D-01 BMatC= 1.82D-12 BMatP= 3.55D-11
 IDIUse=1 WtCom= 1.00D+00 WtEn= 0.00D+00
 Coeff-Com: -0.243D-04-0.183D-02 0.495D-04-0.302D-02 0.260D-01 0.219D+00
 Coeff-Com:  0.760D+00
 Coeff:     -0.243D-04-0.183D-02 0.495D-04-0.302D-02 0.260D-01 0.219D+00
 Coeff:      0.760D+00
 Gap=     0.291 Goal=   None    Shift=    0.000
 RMSDP=2.48D-08 MaxDP=2.90D-07 DE=-2.60D-11 OVMax= 4.13D-07

 Cycle   8  Pass 1  IDiag  1:
 E= -189.755457693334     Delta-E=       -0.000000000004 Rises=F Damp=F
 DIIS: error= 1.64D-08 at cycle   8 NSaved=   8.
 NSaved= 8 IEnMin= 8 EnMin= -189.755457693334     IErMin= 8 ErrMin= 1.64D-08
 ErrMax= 1.64D-08  0.00D+00 EMaxC= 1.00D-01 BMatC= 1.21D-14 BMatP= 1.82D-12
 IDIUse=1 WtCom= 1.00D+00 WtEn= 0.00D+00
 Coeff-Com:  0.529D-04-0.710D-03-0.580D-03-0.308D-02-0.104D-02 0.208D-01
 Coeff-Com:  0.128D+00 0.856D+00
 Coeff:      0.529D-04-0.710D-03-0.580D-03-0.308D-02-0.104D-02 0.208D-01
 Coeff:      0.128D+00 0.856D+00
 Gap=     0.291 Goal=   None    Shift=    0.000
 RMSDP=2.78D-09 MaxDP=2.37D-08 DE=-3.64D-12 OVMax= 3.99D-08

 SCF Done:  E(RB3LYP) =  -189.755457693     A.U. after    8 cycles
            NFock=  8  Conv=0.28D-08     -V/T= 2.0086
 KE= 1.881405411166D+02 PE=-5.860839271925D+02 EE= 1.381973615325D+02
 Leave Link  502 at Thu Mar 19 18:38:31 2026, MaxMem=   536870912 cpu:         1.0
 (Enter C:\G09W\l701.exe)
 Compute integral first derivatives.
 ... and contract with generalized density number  0.
 Leave Link  701 at Thu Mar 19 18:38:32 2026, MaxMem=   536870912 cpu:         1.0
 (Enter C:\G09W\l702.exe)
 L702 exits ... SP integral derivatives will be done elsewhere.
 Leave Link  702 at Thu Mar 19 18:38:32 2026, MaxMem=   536870912 cpu:         0.0
 (Enter C:\G09W\l703.exe)
 Compute integral first derivatives, UseDBF=F ICtDFT=           0.
 Integral derivatives from FoFJK, PRISM(SPDF).
 Calling FoFJK, ICntrl=      2127 FMM=F ISym2X=1 I1Cent= 0 IOpClX= 0 NMat=1 NMatS=1 NMatT=0.
 FoFJK:  IHMeth= 1 ICntrl=    2127 DoSepK=F KAlg= 0 I1Cent=   0 FoldK=F
 IRaf=         0 NMat=   1 IRICut=       1 DoRegI=T DoRafI=F ISym2E= 1.
 FoFCou: FMM=F IPFlag=           0 FMFlag=      100000 FMFlg1=         800
         NFxFlg=           0 DoJE=F BraDBF=F KetDBF=F FulRan=T
         wScrn=  0.000000 ICntrl=    2127 IOpCl=  0 I1Cent=           0 NGrid=           0
         NMat0=    1 NMatS0=      1 NMatT0=    0 NMatD0=    1 NMtDS0=    0 NMtDT0=    0
 Petite list used in FoFCou.
 Leave Link  703 at Thu Mar 19 18:38:32 2026, MaxMem=   536870912 cpu:         0.0
 (Enter C:\G09W\l716.exe)
 Dipole        = 5.37219863D-01-1.66716772D-01-3.68401546D-17
 ***** Axes restored to original set *****
 -------------------------------------------------------------------
 Center     Atomic                   Forces (Hartrees/Bohr)
 Number     Number              X              Y              Z
 -------------------------------------------------------------------
      1        8           0.000207555   -0.000145904    0.000172736
      2        6          -0.000265765    0.000015936   -0.000163564
      3        8           0.000025234    0.000100928   -0.000019009
      4        1           0.000035061    0.000046133    0.000005315
      5        1          -0.000002085   -0.000017094    0.000004522
 -------------------------------------------------------------------
 Cartesian Forces:  Max     0.000265765 RMS     0.000117397
 Leave Link  716 at Thu Mar 19 18:38:32 2026, MaxMem=   536870912 cpu:         0.0
 (Enter C:\G09W\l103.exe)

 GradGradGradGradGradGradGradGradGradGradGradGradGradGradGradGradGradGrad
 Berny optimization.
 Using GEDIIS/GDIIS optimizer.
 FormGI is forming the generalized inverse of G from B-inverse, IUseBI=4.
 Internal  Forces:  Max     0.000317456 RMS     0.000103566
 Search for a local minimum.
 Step number   4 out of a maximum of   21
 All quantities printed in internal units (Hartrees-Bohrs-Radians)
 RMS Force = .10357D-03 SwitMx=.10000D-02 MixMth= 2
 Mixed Optimization -- En-DIIS/RFO-DIIS
 Swapping is turned off.
 Update second derivatives using D2CorX and points    1    2    3    4
 DE= -8.17D-07 DEPred=-3.41D-06 R= 2.40D-01
 Trust test= 2.40D-01 RLast= 5.94D-03 DXMaxT set to 3.00D-01
 The second derivative matrix:
                          R1        R2        R3        R4        A1
           R1           0.57855
           R2           0.03045   0.52353
           R3           0.04181  -0.02400   0.87605
           R4          -0.01599   0.00485   0.01102   0.33585
           A1           0.02311   0.02111   0.00720   0.00268   0.18171
           A2          -0.00458  -0.00952   0.04234  -0.00687  -0.03086
           A3           0.02512   0.01094  -0.04111   0.01528   0.02808
           A4          -0.03530   0.00579   0.00759   0.00400   0.00566
           D1           0.00000   0.00000   0.00000   0.00000   0.00000
           D2           0.00000   0.00000   0.00000   0.00000   0.00000
           D3           0.00000   0.00000   0.00000   0.00000   0.00000
                          A2        A3        A4        D1        D2
           A2           0.24811
           A3          -0.03646   0.18558
           A4          -0.02661   0.02984   0.17940
           D1           0.00000   0.00000   0.00000   0.02463
           D2           0.00000   0.00000   0.00000   0.00000   0.02463
           D3           0.00000   0.00000   0.00000   0.00000   0.00000
                          D3
           D3           0.04119
 ITU=  0  1  1  0
     Eigenvalues ---    0.02463   0.03669   0.14021   0.17062   0.28326
     Eigenvalues ---    0.33912   0.50830   0.59695   0.88809
 En-DIIS/RFO-DIIS IScMMF=        0 using points:     4    3
 RFO step:  Lambda=-1.55248436D-07.
 NNeg= 0 NP= 2 Switch=  2.50D-03 Rises=F DC=  8.17D-07 SmlDif=  1.00D-05
 RMS Error=  0.1386447292D-03 NUsed= 2 EDIIS=F
 DidBck=F Rises=F RFO-DIIS coefs:    1.00305   -0.00305
 Iteration  1 RMS(Cart)=  0.00016216 RMS(Int)=  0.00000002
 Iteration  2 RMS(Cart)=  0.00000001 RMS(Int)=  0.00000000
 ITry= 1 IFail=0 DXMaxC= 2.29D-04 DCOld= 1.00D+10 DXMaxT= 3.00D-01 DXLimC= 3.00D+00 Rises=F
 ClnCor:  largest displacement from symmetrization is 6.78D-10 for atom     1.
 Variable       Old X    -DE/DX   Delta X   Delta X   Delta X     New X
                                 (Linear)    (Quad)   (Total)
    R1        2.54524   0.00032   0.00000   0.00056   0.00056   2.54580
    R2        1.84688   0.00005   0.00000   0.00008   0.00008   1.84695
    R3        2.27654   0.00010   0.00000   0.00010   0.00010   2.27664
    R4        2.07797   0.00001   0.00000   0.00005   0.00005   2.07802
    A1        1.86121  -0.00001  -0.00001  -0.00014  -0.00015   1.86106
    A2        2.18555  -0.00005   0.00000  -0.00020  -0.00020   2.18535
    A3        1.90854   0.00001  -0.00001  -0.00004  -0.00005   1.90848
    A4        2.18909   0.00003   0.00001   0.00025   0.00026   2.18935
    D1        0.00000   0.00000   0.00000   0.00000   0.00000   0.00000
    D2        3.14159   0.00000   0.00000   0.00000   0.00000   3.14159
    D3        3.14159   0.00000   0.00000   0.00000   0.00000   3.14159
         Item               Value     Threshold  Converged?
 Maximum Force            0.000317     0.000450     YES
 RMS     Force            0.000104     0.000300     YES
 Maximum Displacement     0.000229     0.001800     YES
 RMS     Displacement     0.000162     0.001200     YES
 Predicted change in Energy=-1.057230D-07
 Optimization completed.
    -- Stationary point found.
                           ----------------------------
                           !   Optimized Parameters   !
                           ! (Angstroms and Degrees)  !
 --------------------------                            --------------------------
 ! Name  Definition              Value          Derivative Info.                !
 --------------------------------------------------------------------------------
 ! R1    R(1,2)                  1.3469         -DE/DX =    0.0003              !
 ! R2    R(1,4)                  0.9773         -DE/DX =    0.0001              !
 ! R3    R(2,3)                  1.2047         -DE/DX =    0.0001              !
 ! R4    R(2,5)                  1.0996         -DE/DX =    0.0                 !
 ! A1    A(2,1,4)              106.6397         -DE/DX =    0.0                 !
 ! A2    A(1,2,3)              125.223          -DE/DX =    0.0                 !
 ! A3    A(1,2,5)              109.3511         -DE/DX =    0.0                 !
 ! A4    A(3,2,5)              125.4259         -DE/DX =    0.0                 !
 ! D1    D(4,1,2,3)              0.0            -DE/DX =    0.0                 !
 ! D2    D(4,1,2,5)            180.0            -DE/DX =    0.0                 !
 ! D3    D(1,2,3,5)            180.0            -DE/DX =    0.0                 !
 --------------------------------------------------------------------------------
 Lowest energy point so far.  Saving SCF results.
 GradGradGradGradGradGradGradGradGradGradGradGradGradGradGradGradGradGrad

 Largest change from initial coordinates is atom    5       0.479 Angstoms.
 Leave Link  103 at Thu Mar 19 18:38:32 2026, MaxMem=   536870912 cpu:         0.0
 (Enter C:\G09W\l202.exe)
                          Input orientation:                          
 ---------------------------------------------------------------------
 Center     Atomic      Atomic             Coordinates (Angstroms)
 Number     Number       Type             X           Y           Z
 ---------------------------------------------------------------------
      1          8           0        0.613329   -0.535387    0.516311
      2          6           0       -0.362817   -0.003390   -0.244089
      3          8           0       -0.390943    1.132684   -0.643872
      4          1           0        1.268538    0.173917    0.667159
      5          1           0       -1.128108   -0.767824   -0.441873
 ---------------------------------------------------------------------
                    Distance matrix (angstroms):
                    1          2          3          4          5
     1  O    0.000000
     2  C    1.346881   0.000000
     3  O    2.266505   1.204692   0.000000
     4  H    0.977325   1.876999   2.322049   0.000000
     5  H    2.001186   1.099613   2.048450   2.803701   0.000000
 Stoichiometry    CH2O2
 Framework group  CS[SG(CH2O2)]
 Deg. of freedom     7
 Full point group                 CS      NOp   2
 RotChk:  IX=2 Diff= 1.59D-15
 Largest Abelian subgroup         CS      NOp   2
 Largest concise Abelian subgroup C1      NOp   1
                         Standard orientation:                         
 ---------------------------------------------------------------------
 Center     Atomic      Atomic             Coordinates (Angstroms)
 Number     Number       Type             X           Y           Z
 ---------------------------------------------------------------------
      1          8           0        1.034555   -0.440836    0.000000
      2          6           0        0.000000    0.421593    0.000000
      3          8           0       -1.163852    0.110576    0.000000
      4          1           0        0.649926   -1.339293    0.000000
      5          1           0        0.384451    1.451810    0.000000
 ---------------------------------------------------------------------
 Rotational constants (GHZ):     77.5237150     11.9795819     10.3761730
 Leave Link  202 at Thu Mar 19 18:38:33 2026, MaxMem=   536870912 cpu:         0.0
 (Enter C:\G09W\l601.exe)
 Copying SCF densities to generalized density rwf, IOpCl= 0 IROHF=0.

 **********************************************************************

            Population analysis using the SCF density.

 **********************************************************************

 Orbital symmetries:
       Occupied  (A') (A') (A') (A') (A') (A') (A') (A') (A") (A')
                 (A") (A')
       Virtual   (A") (A') (A') (A') (A') (A") (A') (A') (A') (A')
                 (A') (A') (A") (A') (A") (A') (A') (A") (A') (A")
                 (A') (A') (A") (A") (A') (A') (A') (A") (A') (A')
                 (A") (A') (A') (A') (A') (A') (A')
 The electronic state is 1-A'.
 Alpha  occ. eigenvalues --  -19.21153 -19.15463 -10.32984  -1.11662  -1.02968
 Alpha  occ. eigenvalues --   -0.66823  -0.52067  -0.48997  -0.44917  -0.40839
 Alpha  occ. eigenvalues --   -0.33132  -0.29164
 Alpha virt. eigenvalues --   -0.00063   0.06602   0.13299   0.26150   0.26961
 Alpha virt. eigenvalues --    0.50643   0.53236   0.67217   0.69289   0.76047
 Alpha virt. eigenvalues --    0.83023   0.85124   0.89898   0.94585   0.98622
 Alpha virt. eigenvalues --    1.05624   1.11867   1.38411   1.39017   1.46334
 Alpha virt. eigenvalues --    1.47830   1.69025   1.72932   1.83246   1.84114
 Alpha virt. eigenvalues --    1.84924   2.07984   2.31698   2.34216   2.52245
 Alpha virt. eigenvalues --    2.63025   2.70664   2.89641   2.98014   3.72875
 Alpha virt. eigenvalues --    3.79603   4.15627
          Condensed to atoms (all electrons):
               1          2          3          4          5
     1  O    8.196692   0.272084  -0.077507   0.211002  -0.083344
     2  C    0.272084   4.428095   0.571206  -0.006261   0.368583
     3  O   -0.077507   0.571206   7.953352   0.010730  -0.053426
     4  H    0.211002  -0.006261   0.010730   0.365194   0.009966
     5  H   -0.083344   0.368583  -0.053426   0.009966   0.610599
 Mulliken charges:
               1
     1  O   -0.518927
     2  C    0.366292
     3  O   -0.404355
     4  H    0.409369
     5  H    0.147621
 Sum of Mulliken charges =   0.00000
 Mulliken charges with hydrogens summed into heavy atoms:
               1
     1  O   -0.109558
     2  C    0.513913
     3  O   -0.404355
 Electronic spatial extent (au):  <R**2>=            132.6722
 Charge=              0.0000 electrons
 Dipole moment (field-independent basis, Debye):
    X=              1.3655    Y=             -0.4238    Z=              0.0000  Tot=              1.4297
 Quadrupole moment (field-independent basis, Debye-Ang):
   XX=            -21.5722   YY=            -12.5631   ZZ=            -16.5989
   XY=              0.0482   XZ=              0.0000   YZ=              0.0000
 Traceless Quadrupole moment (field-independent basis, Debye-Ang):
   XX=             -4.6608   YY=              4.3483   ZZ=              0.3125
   XY=              0.0482   XZ=              0.0000   YZ=              0.0000
 Octapole moment (field-independent basis, Debye-Ang**2):
  XXX=              0.8048  YYY=             -5.1780  ZZZ=              0.0000  XYY=              2.7462
  XXY=             -0.8311  XXZ=              0.0000  XZZ=             -0.2808  YZZ=             -0.5553
  YYZ=              0.0000  XYZ=              0.0000
 Hexadecapole moment (field-independent basis, Debye-Ang**3):
 XXXX=           -101.0160 YYYY=            -29.3150 ZZZZ=            -12.6188 XXXY=             10.7656
 XXXZ=              0.0000 YYYX=              6.9169 YYYZ=              0.0000 ZZZX=              0.0000
 ZZZY=              0.0000 XXYY=            -21.1436 XXZZ=            -17.9766 YYZZ=             -8.6860
 XXYZ=              0.0000 YYXZ=              0.0000 ZZXY=              3.2173
 N-N= 6.999056685001D+01 E-N=-5.860839272013D+02  KE= 1.881405411166D+02
 Symmetry A'   KE= 1.798520054590D+02
 Symmetry A"   KE= 8.288535657630D+00
 No NMR shielding tensors so no spin-rotation constants.
 Leave Link  601 at Thu Mar 19 18:38:33 2026, MaxMem=   536870912 cpu:         0.0
 (Enter C:\G09W\l9999.exe)
 1|1|UNPC-DESKTOP-GS7R1K3|FOpt|RB3LYP|6-31G(d)|C1H2O2|1172|19-Mar-2026|
 0||#p opt B3LYP/6-31G(d)||formic_acid||0,1|O,0.6133293367,-0.535386638
 1,0.5163105745|C,-0.3628165279,-0.0033900023,-0.2440885072|O,-0.390942
 8487,1.1326841895,-0.6438718376|H,1.2685378425,0.1739168635,0.66715863
 63|H,-1.1281077994,-0.7678244144,-0.4418728714||Version=EM64W-G09RevD.
 01|State=1-A'|HF=-189.7554577|RMSD=2.778e-009|RMSF=1.174e-004|Dipole=0
 .2721109,-0.394209,0.2948807|Quadrupole=2.084106,-1.9736688,-0.1104371
 ,1.8637523,0.4738446,1.8531371|PG=CS [SG(C1H2O2)]||@


 EXPERIENCE IS A WONDERFUL THING.  IT ENABLES
 YOU TO RECOGNIZE A MISTAKE WHEN YOU MAKE IT AGAIN.
           - BACK OF A SUGAR PACKET
 Job cpu time:       0 days  0 hours  0 minutes 19.0 seconds.
 File lengths (MBytes):  RWF=      5 Int=      0 D2E=      0 Chk=      1 Scr=      1
 Normal termination of Gaussian 09 at Thu Mar 19 18:38:33 2026.
