 Entering Gaussian System, Link 0=C:\G09W\g09.exe
 Input=formaldehyde_rdkit.com
 Output=C:\workspace\delta_chem\data\raw\formaldehyde\formaldehyde_rdkit.out
 Initial command:
 C:\G09W\l1.exe ".\Gau-9620.inp" "C:\workspace\delta_chem\data\raw\formaldehyde\formaldehyde_rdkit.out" /scrdir=".\"
 Entering Link 1 = C:\G09W\l1.exe PID=     14804.
  
 Copyright (c) 1988,1990,1992,1993,1995,1998,2003,2009,2013,
            Gaussian, Inc.  All Rights Reserved.
  
 This is part of the Gaussian(R) 09 program.  It is based on
 the Gaussian(R) 03 system (copyright 2003, Gaussian, Inc.),
 the Gaussian(R) 98 system (copyright 1998, Gaussian, Inc.),
 the Gaussian(R) 94 system (copyright 1995, Gaussian, Inc.),
 the Gaussian 92(TM) system (copyright 1992, Gaussian, Inc.),
 the Gaussian 90(TM) system (copyright 1990, Gaussian, Inc.),
 the Gaussian 88(TM) system (copyright 1988, Gaussian, Inc.),
 the Gaussian 86(TM) system (copyright 1986, Carnegie Mellon
 University), and the Gaussian 82(TM) system (copyright 1983,
 Carnegie Mellon University). Gaussian is a federally registered
 trademark of Gaussian, Inc.
  
 This software contains proprietary and confidential information,
 including trade secrets, belonging to Gaussian, Inc.
  
 This software is provided under written license and may be
 used, copied, transmitted, or stored only in accord with that
 written license.
  
 The following legend is applicable only to US Government
 contracts under FAR:
  
                    RESTRICTED RIGHTS LEGEND
  
 Use, reproduction and disclosure by the US Government is
 subject to restrictions as set forth in subparagraphs (a)
 and (c) of the Commercial Computer Software - Restricted
 Rights clause in FAR 52.227-19.
  
 Gaussian, Inc.
 340 Quinnipiac St., Bldg. 40, Wallingford CT 06492
  
  
 ---------------------------------------------------------------
 Warning -- This program may not be used in any manner that
 competes with the business of Gaussian, Inc. or will provide
 assistance to any competitor of Gaussian, Inc.  The licensee
 of this program is prohibited from giving any competitor of
 Gaussian, Inc. access to this program.  By using this program,
 the user acknowledges that Gaussian, Inc. is engaged in the
 business of creating and licensing software in the field of
 computational chemistry and represents and warrants to the
 licensee that it is not a competitor of Gaussian, Inc. and that
 it will not use this program in any manner prohibited above.
 ---------------------------------------------------------------
  

 Cite this work as:
 Gaussian 09, Revision D.01,
 M. J. Frisch, G. W. Trucks, H. B. Schlegel, G. E. Scuseria, 
 M. A. Robb, J. R. Cheeseman, G. Scalmani, V. Barone, B. Mennucci, 
 G. A. Petersson, H. Nakatsuji, M. Caricato, X. Li, H. P. Hratchian, 
 A. F. Izmaylov, J. Bloino, G. Zheng, J. L. Sonnenberg, M. Hada, 
 M. Ehara, K. Toyota, R. Fukuda, J. Hasegawa, M. Ishida, T. Nakajima, 
 Y. Honda, O. Kitao, H. Nakai, T. Vreven, J. A. Montgomery, Jr., 
 J. E. Peralta, F. Ogliaro, M. Bearpark, J. J. Heyd, E. Brothers, 
 K. N. Kudin, V. N. Staroverov, T. Keith, R. Kobayashi, J. Normand, 
 K. Raghavachari, A. Rendell, J. C. Burant, S. S. Iyengar, J. Tomasi, 
 M. Cossi, N. Rega, J. M. Millam, M. Klene, J. E. Knox, J. B. Cross, 
 V. Bakken, C. Adamo, J. Jaramillo, R. Gomperts, R. E. Stratmann, 
 O. Yazyev, A. J. Austin, R. Cammi, C. Pomelli, J. W. Ochterski, 
 R. L. Martin, K. Morokuma, V. G. Zakrzewski, G. A. Voth, 
 P. Salvador, J. J. Dannenberg, S. Dapprich, A. D. Daniels, 
 O. Farkas, J. B. Foresman, J. V. Ortiz, J. Cioslowski, 
 and D. J. Fox, Gaussian, Inc., Wallingford CT, 2013.
 
 ******************************************
 Gaussian 09:  EM64W-G09RevD.01 13-Apr-2013
                19-Mar-2026 
 ******************************************
 %NProcShared=4
 Will use up to    4 processors via shared memory.
 %Mem=4GB
 %Chk=formaldehyde_rdkit.chk
 ---------------------
 #p opt B3LYP/6-31G(d)
 ---------------------
 1/14=-1,18=20,19=15,26=3,38=1/1,3;
 2/9=110,12=2,17=6,18=5,40=1/2;
 3/5=1,6=6,7=1,11=2,16=1,25=1,30=1,71=1,74=-5/1,2,3;
 4//1;
 5/5=2,38=5/2;
 6/7=2,8=2,9=2,10=2,28=1/1;
 7//1,2,3,16;
 1/14=-1,18=20,19=15,26=3/3(2);
 2/9=110/2;
 99//99;
 2/9=110/2;
 3/5=1,6=6,7=1,11=2,16=1,25=1,30=1,71=1,74=-5/1,2,3;
 4/5=5,16=3,69=1/1;
 5/5=2,38=5/2;
 7//1,2,3,16;
 1/14=-1,18=20,19=15,26=3/3(-5);
 2/9=110/2;
 6/7=2,8=2,9=2,10=2,19=2,28=1/1;
 99/9=1/99;
 Leave Link    1 at Thu Mar 19 18:31:06 2026, MaxMem=   536870912 cpu:         0.0
 (Enter C:\G09W\l101.exe)
 ------------
 formaldehyde
 ------------
 Symbolic Z-matrix:
 Charge =  0 Multiplicity = 1
 C                    -0.01214   0.00219  0. 
 O                     1.19308  -0.21503   0.00022 
 H                    -0.75576  -0.81069  -0.0002 
 H                    -0.42518   1.02353  -0.00002 
 
 NAtoms=      4 NQM=        4 NQMF=       0 NMMI=      0 NMMIF=      0
                NMic=       0 NMicF=      0.
                    Isotopes and Nuclear Properties:
 (Nuclear quadrupole moments (NQMom) in fm**2, nuclear magnetic moments (NMagM)
  in nuclear magnetons)

  Atom         1           2           3           4
 IAtWgt=          12          16           1           1
 AtmWgt=  12.0000000  15.9949146   1.0078250   1.0078250
 NucSpn=           0           0           1           1
 AtZEff=   0.0000000   0.0000000   0.0000000   0.0000000
 NQMom=    0.0000000   0.0000000   0.0000000   0.0000000
 NMagM=    0.0000000   0.0000000   2.7928460   2.7928460
 AtZNuc=   6.0000000   8.0000000   1.0000000   1.0000000
 Leave Link  101 at Thu Mar 19 18:31:06 2026, MaxMem=   536870912 cpu:         0.0
 (Enter C:\G09W\l103.exe)

 GradGradGradGradGradGradGradGradGradGradGradGradGradGradGradGradGradGrad
 Berny optimization.
 Initialization pass.
                           ----------------------------
                           !    Initial Parameters    !
                           ! (Angstroms and Degrees)  !
 --------------------------                            --------------------------
 ! Name  Definition              Value          Derivative Info.                !
 --------------------------------------------------------------------------------
 ! R1    R(1,2)                  1.2246         estimate D2E/DX2                !
 ! R2    R(1,3)                  1.1017         estimate D2E/DX2                !
 ! R3    R(1,4)                  1.1017         estimate D2E/DX2                !
 ! A1    A(2,1,3)              122.2358         estimate D2E/DX2                !
 ! A2    A(2,1,4)              122.2357         estimate D2E/DX2                !
 ! A3    A(3,1,4)              115.5285         estimate D2E/DX2                !
 ! D1    D(2,1,4,3)            179.9999         estimate D2E/DX2                !
 --------------------------------------------------------------------------------
 Trust Radius=3.00D-01 FncErr=1.00D-07 GrdErr=1.00D-06
 Number of steps in this run=     20 maximum allowed number of steps=    100.
 GradGradGradGradGradGradGradGradGradGradGradGradGradGradGradGradGradGrad

 Leave Link  103 at Thu Mar 19 18:31:07 2026, MaxMem=   536870912 cpu:         1.0
 (Enter C:\G09W\l202.exe)
                          Input orientation:                          
 ---------------------------------------------------------------------
 Center     Atomic      Atomic             Coordinates (Angstroms)
 Number     Number       Type             X           Y           Z
 ---------------------------------------------------------------------
      1          6           0       -0.012137    0.002187   -0.000002
      2          8           0        1.193077   -0.215026    0.000221
      3          1           0       -0.755759   -0.810689   -0.000197
      4          1           0       -0.425182    1.023528   -0.000022
 ---------------------------------------------------------------------
                    Distance matrix (angstroms):
                    1          2          3          4
     1  C    0.000000
     2  O    1.224632   0.000000
     3  H    1.101699   2.037836   0.000000
     4  H    1.101700   2.037837   1.863769   0.000000
 Stoichiometry    CH2O
 Framework group  C2V[C2(CO),SGV(H2)]
 Deg. of freedom     3
 Full point group                 C2V     NOp   4
 Largest Abelian subgroup         C2V     NOp   4
 Largest concise Abelian subgroup C2      NOp   2
                         Standard orientation:                         
 ---------------------------------------------------------------------
 Center     Atomic      Atomic             Coordinates (Angstroms)
 Number     Number       Type             X           Y           Z
 ---------------------------------------------------------------------
      1          6           0        0.000000    0.000000   -0.538859
      2          8           0        0.000000    0.000000    0.685772
      3          1           0        0.000000   -0.931884   -1.126511
      4          1           0        0.000000    0.931884   -1.126511
 ---------------------------------------------------------------------
 Rotational constants (GHZ):    288.7210567     37.7190711     33.3607579
 Leave Link  202 at Thu Mar 19 18:31:08 2026, MaxMem=   536870912 cpu:         0.0
 (Enter C:\G09W\l301.exe)
 Standard basis: 6-31G(d) (6D, 7F)
 Ernie: Thresh=  0.10000D-02 Tol=  0.10000D-05 Strict=F.
 There are    18 symmetry adapted cartesian basis functions of A1  symmetry.
 There are     2 symmetry adapted cartesian basis functions of A2  symmetry.
 There are     6 symmetry adapted cartesian basis functions of B1  symmetry.
 There are     8 symmetry adapted cartesian basis functions of B2  symmetry.
 There are    18 symmetry adapted basis functions of A1  symmetry.
 There are     2 symmetry adapted basis functions of A2  symmetry.
 There are     6 symmetry adapted basis functions of B1  symmetry.
 There are     8 symmetry adapted basis functions of B2  symmetry.
    34 basis functions,    64 primitive gaussians,    34 cartesian basis functions
     8 alpha electrons        8 beta electrons
       nuclear repulsion energy        30.9440290874 Hartrees.
 IExCor=  402 DFT=T Ex+Corr=B3LYP ExCW=0 ScaHFX=  0.200000
 ScaDFX=  0.800000  0.720000  1.000000  0.810000 ScalE2=  1.000000  1.000000
 IRadAn=      0 IRanWt=     -1 IRanGd=            0 ICorTp=0 IEmpDi=  4
 NAtoms=    4 NActive=    4 NUniq=    3 SFac= 1.78D+00 NAtFMM=   60 NAOKFM=F Big=F
 Integral buffers will be    131072 words long.
 Raffenetti 2 integral format.
 Two-electron integral symmetry is turned on.
 Leave Link  301 at Thu Mar 19 18:31:08 2026, MaxMem=   536870912 cpu:         0.0
 (Enter C:\G09W\l302.exe)
 NPDir=0 NMtPBC=     1 NCelOv=     1 NCel=       1 NClECP=     1 NCelD=      1
         NCelK=      1 NCelE2=     1 NClLst=     1 CellRange=     0.0.
 One-electron integrals computed using PRISM.
 One-electron integral symmetry used in STVInt
 NBasis=    34 RedAO= T EigKep=  1.88D-02  NBF=    18     2     6     8
 NBsUse=    34 1.00D-06 EigRej= -1.00D+00 NBFU=    18     2     6     8
 Precomputing XC quadrature grid using
 IXCGrd= 4 IRadAn=           0 IRanWt=          -1 IRanGd=           0 AccXCQ= 0.00D+00.
 Generated NRdTot=       0 NPtTot=           0 NUsed=           0 NTot=          32
 NSgBfM=    34    34    34    34    34 MxSgAt=     4 MxSgA2=     4.
 Leave Link  302 at Thu Mar 19 18:31:08 2026, MaxMem=   536870912 cpu:         0.0
 (Enter C:\G09W\l303.exe)
 DipDrv:  MaxL=1.
 Leave Link  303 at Thu Mar 19 18:31:09 2026, MaxMem=   536870912 cpu:         0.0
 (Enter C:\G09W\l401.exe)
 ExpMin= 1.61D-01 ExpMax= 5.48D+03 ExpMxC= 8.25D+02 IAcc=1 IRadAn=         1 AccDes= 0.00D+00
 Harris functional with IExCor=  402 and IRadAn=       1 diagonalized for initial guess.
 HarFok:  IExCor=  402 AccDes= 0.00D+00 IRadAn=         1 IDoV= 1 UseB2=F ITyADJ=14
 ICtDFT=  3500011 ScaDFX=  1.000000  1.000000  1.000000  1.000000
 FoFCou: FMM=F IPFlag=           0 FMFlag=      100000 FMFlg1=           0
         NFxFlg=           0 DoJE=T BraDBF=F KetDBF=T FulRan=T
         wScrn=  0.000000 ICntrl=     500 IOpCl=  0 I1Cent=   200000004 NGrid=           0
         NMat0=    1 NMatS0=      1 NMatT0=    0 NMatD0=    1 NMtDS0=    0 NMtDT0=    0
 Petite list used in FoFCou.
 Harris En= -114.508489197016    
 JPrj=0 DoOrth=F DoCkMO=F.
 Initial guess orbital symmetries:
       Occupied  (A1) (A1) (A1) (A1) (B2) (A1) (B1) (B2)
       Virtual   (B1) (A1) (B2) (A1) (B1) (A1) (B2) (A1) (B2) (A1)
                 (A1) (B1) (B2) (A1) (B1) (A2) (A1) (B2) (A2) (A1)
                 (A1) (B1) (B2) (A1) (A1) (A1)
 The electronic state of the initial guess is 1-A1.
 Leave Link  401 at Thu Mar 19 18:31:09 2026, MaxMem=   536870912 cpu:         0.0
 (Enter C:\G09W\l502.exe)
 Closed shell SCF:
 Using DIIS extrapolation, IDIIS=  1040.
 Integral symmetry usage will be decided dynamically.
 Keep R1 ints in memory in symmetry-blocked form, NReq=1062354.
 IVT=       22562 IEndB=       22562 NGot=   536870912 MDV=   536795673
 LenX=   536795673 LenY=   536794076
 Requested convergence on RMS density matrix=1.00D-08 within 128 cycles.
 Requested convergence on MAX density matrix=1.00D-06.
 Requested convergence on             energy=1.00D-06.
 No special actions if energy rises.
 FoFCou: FMM=F IPFlag=           0 FMFlag=           0 FMFlg1=           0
         NFxFlg=           0 DoJE=F BraDBF=F KetDBF=F FulRan=T
         wScrn=  0.000000 ICntrl=     600 IOpCl=  0 I1Cent=           0 NGrid=           0
         NMat0=    1 NMatS0=    595 NMatT0=    0 NMatD0=    1 NMtDS0=    0 NMtDT0=    0
 Petite list used in FoFCou.
 Integral accuracy reduced to 1.0D-05 until final iterations.

 Cycle   1  Pass 0  IDiag  1:
 E= -114.449492691259    
 DIIS: error= 4.60D-02 at cycle   1 NSaved=   1.
 NSaved= 1 IEnMin= 1 EnMin= -114.449492691259     IErMin= 1 ErrMin= 4.60D-02
 ErrMax= 4.60D-02  0.00D+00 EMaxC= 1.00D-01 BMatC= 6.05D-02 BMatP= 6.05D-02
 IDIUse=3 WtCom= 5.40D-01 WtEn= 4.60D-01
 Coeff-Com:  0.100D+01
 Coeff-En:   0.100D+01
 Coeff:      0.100D+01
 Gap=     0.167 Goal=   None    Shift=    0.000
 GapD=    0.167 DampG=1.000 DampE=0.500 DampFc=0.5000 IDamp=-1.
 Damping current iteration by 5.00D-01
 RMSDP=1.87D-02 MaxDP=1.81D-01              OVMax= 2.88D-01

 Cycle   2  Pass 0  IDiag  1:
 E= -114.446798810637     Delta-E=        0.002693880621 Rises=F Damp=T
 DIIS: error= 3.06D-02 at cycle   2 NSaved=   2.
 NSaved= 2 IEnMin= 1 EnMin= -114.449492691259     IErMin= 2 ErrMin= 3.06D-02
 ErrMax= 3.06D-02  0.00D+00 EMaxC= 1.00D-01 BMatC= 2.19D-02 BMatP= 6.05D-02
 IDIUse=3 WtCom= 6.94D-01 WtEn= 3.06D-01
 Coeff-Com:  0.356D+00 0.644D+00
 Coeff-En:   0.519D+00 0.481D+00
 Coeff:      0.406D+00 0.594D+00
 Gap=     0.214 Goal=   None    Shift=    0.000
 RMSDP=3.99D-03 MaxDP=3.34D-02 DE= 2.69D-03 OVMax= 2.04D-01

 Cycle   3  Pass 0  IDiag  1:
 E= -114.497835622390     Delta-E=       -0.051036811752 Rises=F Damp=F
 DIIS: error= 7.32D-03 at cycle   3 NSaved=   3.
 NSaved= 3 IEnMin= 3 EnMin= -114.497835622390     IErMin= 3 ErrMin= 7.32D-03
 ErrMax= 7.32D-03  0.00D+00 EMaxC= 1.00D-01 BMatC= 2.06D-03 BMatP= 2.19D-02
 IDIUse=3 WtCom= 9.27D-01 WtEn= 7.32D-02
 Coeff-Com:  0.143D+00 0.221D+00 0.636D+00
 Coeff-En:   0.000D+00 0.000D+00 0.100D+01
 Coeff:      0.132D+00 0.205D+00 0.663D+00
 Gap=     0.219 Goal=   None    Shift=    0.000
 RMSDP=1.62D-03 MaxDP=1.65D-02 DE=-5.10D-02 OVMax= 1.71D-02

 Cycle   4  Pass 0  IDiag  1:
 E= -114.499730991769     Delta-E=       -0.001895369379 Rises=F Damp=F
 DIIS: error= 2.63D-03 at cycle   4 NSaved=   4.
 NSaved= 4 IEnMin= 4 EnMin= -114.499730991769     IErMin= 4 ErrMin= 2.63D-03
 ErrMax= 2.63D-03  0.00D+00 EMaxC= 1.00D-01 BMatC= 2.15D-04 BMatP= 2.06D-03
 IDIUse=3 WtCom= 9.74D-01 WtEn= 2.63D-02
 Coeff-Com:  0.191D-01-0.655D-02 0.239D+00 0.749D+00
 Coeff-En:   0.000D+00 0.000D+00 0.000D+00 0.100D+01
 Coeff:      0.186D-01-0.638D-02 0.232D+00 0.756D+00
 Gap=     0.222 Goal=   None    Shift=    0.000
 RMSDP=3.45D-04 MaxDP=4.41D-03 DE=-1.90D-03 OVMax= 4.54D-03

 Cycle   5  Pass 0  IDiag  1:
 E= -114.499926981598     Delta-E=       -0.000195989829 Rises=F Damp=F
 DIIS: error= 2.93D-04 at cycle   5 NSaved=   5.
 NSaved= 5 IEnMin= 5 EnMin= -114.499926981598     IErMin= 5 ErrMin= 2.93D-04
 ErrMax= 2.93D-04  0.00D+00 EMaxC= 1.00D-01 BMatC= 3.00D-06 BMatP= 2.15D-04
 IDIUse=3 WtCom= 9.97D-01 WtEn= 2.93D-03
 Coeff-Com:  0.429D-02-0.917D-02 0.425D-01 0.171D+00 0.792D+00
 Coeff-En:   0.000D+00 0.000D+00 0.000D+00 0.000D+00 0.100D+01
 Coeff:      0.428D-02-0.914D-02 0.424D-01 0.170D+00 0.792D+00
 Gap=     0.222 Goal=   None    Shift=    0.000
 RMSDP=5.67D-05 MaxDP=4.14D-04 DE=-1.96D-04 OVMax= 4.99D-04

 Cycle   6  Pass 0  IDiag  1:
 E= -114.499929665376     Delta-E=       -0.000002683778 Rises=F Damp=F
 DIIS: error= 5.42D-05 at cycle   6 NSaved=   6.
 NSaved= 6 IEnMin= 6 EnMin= -114.499929665376     IErMin= 6 ErrMin= 5.42D-05
 ErrMax= 5.42D-05  0.00D+00 EMaxC= 1.00D-01 BMatC= 6.59D-08 BMatP= 3.00D-06
 IDIUse=1 WtCom= 1.00D+00 WtEn= 0.00D+00
 Coeff-Com:  0.332D-03-0.868D-03-0.388D-03-0.580D-02-0.164D-01 0.102D+01
 Coeff:      0.332D-03-0.868D-03-0.388D-03-0.580D-02-0.164D-01 0.102D+01
 Gap=     0.222 Goal=   None    Shift=    0.000
 RMSDP=8.36D-06 MaxDP=6.66D-05 DE=-2.68D-06 OVMax= 7.65D-05

 Initial convergence to 1.0D-05 achieved.  Increase integral accuracy.
 Cycle   7  Pass 1  IDiag  1:
 E= -114.499925902354     Delta-E=        0.000003763022 Rises=F Damp=F
 DIIS: error= 7.30D-06 at cycle   1 NSaved=   1.
 NSaved= 1 IEnMin= 1 EnMin= -114.499925902354     IErMin= 1 ErrMin= 7.30D-06
 ErrMax= 7.30D-06  0.00D+00 EMaxC= 1.00D-01 BMatC= 8.85D-10 BMatP= 8.85D-10
 IDIUse=1 WtCom= 1.00D+00 WtEn= 0.00D+00
 Coeff-Com:  0.100D+01
 Coeff:      0.100D+01
 Gap=     0.222 Goal=   None    Shift=    0.000
 RMSDP=8.36D-06 MaxDP=6.66D-05 DE= 3.76D-06 OVMax= 2.82D-05

 Cycle   8  Pass 1  IDiag  1:
 E= -114.499925903363     Delta-E=       -0.000000001009 Rises=F Damp=F
 DIIS: error= 5.93D-06 at cycle   2 NSaved=   2.
 NSaved= 2 IEnMin= 2 EnMin= -114.499925903363     IErMin= 2 ErrMin= 5.93D-06
 ErrMax= 5.93D-06  0.00D+00 EMaxC= 1.00D-01 BMatC= 6.04D-10 BMatP= 8.85D-10
 IDIUse=1 WtCom= 1.00D+00 WtEn= 0.00D+00
 Coeff-Com:  0.422D+00 0.578D+00
 Coeff:      0.422D+00 0.578D+00
 Gap=     0.222 Goal=   None    Shift=    0.000
 RMSDP=9.06D-07 MaxDP=1.17D-05 DE=-1.01D-09 OVMax= 2.07D-05

 Cycle   9  Pass 1  IDiag  1:
 E= -114.499925903458     Delta-E=       -0.000000000095 Rises=F Damp=F
 DIIS: error= 5.20D-06 at cycle   3 NSaved=   3.
 NSaved= 3 IEnMin= 3 EnMin= -114.499925903458     IErMin= 3 ErrMin= 5.20D-06
 ErrMax= 5.20D-06  0.00D+00 EMaxC= 1.00D-01 BMatC= 5.37D-10 BMatP= 6.04D-10
 IDIUse=1 WtCom= 1.00D+00 WtEn= 0.00D+00
 Coeff-Com: -0.197D-01 0.492D+00 0.528D+00
 Coeff:     -0.197D-01 0.492D+00 0.528D+00
 Gap=     0.222 Goal=   None    Shift=    0.000
 RMSDP=4.37D-07 MaxDP=5.25D-06 DE=-9.49D-11 OVMax= 8.69D-06

 Cycle  10  Pass 1  IDiag  1:
 E= -114.499925903864     Delta-E=       -0.000000000406 Rises=F Damp=F
 DIIS: error= 2.28D-07 at cycle   4 NSaved=   4.
 NSaved= 4 IEnMin= 4 EnMin= -114.499925903864     IErMin= 4 ErrMin= 2.28D-07
 ErrMax= 2.28D-07  0.00D+00 EMaxC= 1.00D-01 BMatC= 1.56D-12 BMatP= 5.37D-10
 IDIUse=1 WtCom= 1.00D+00 WtEn= 0.00D+00
 Coeff-Com: -0.126D-01 0.125D+00 0.105D+00 0.783D+00
 Coeff:     -0.126D-01 0.125D+00 0.105D+00 0.783D+00
 Gap=     0.222 Goal=   None    Shift=    0.000
 RMSDP=3.28D-08 MaxDP=3.24D-07 DE=-4.06D-10 OVMax= 4.35D-07

 Cycle  11  Pass 1  IDiag  1:
 E= -114.499925903865     Delta-E=       -0.000000000001 Rises=F Damp=F
 DIIS: error= 5.19D-08 at cycle   5 NSaved=   5.
 NSaved= 5 IEnMin= 5 EnMin= -114.499925903865     IErMin= 5 ErrMin= 5.19D-08
 ErrMax= 5.19D-08  0.00D+00 EMaxC= 1.00D-01 BMatC= 1.04D-13 BMatP= 1.56D-12
 IDIUse=1 WtCom= 1.00D+00 WtEn= 0.00D+00
 Coeff-Com: -0.432D-02 0.381D-01 0.246D-01 0.306D+00 0.636D+00
 Coeff:     -0.432D-02 0.381D-01 0.246D-01 0.306D+00 0.636D+00
 Gap=     0.222 Goal=   None    Shift=    0.000
 RMSDP=1.07D-08 MaxDP=8.68D-08 DE=-1.48D-12 OVMax= 1.05D-07

 Cycle  12  Pass 1  IDiag  1:
 E= -114.499925903866     Delta-E=        0.000000000000 Rises=F Damp=F
 DIIS: error= 1.16D-08 at cycle   6 NSaved=   6.
 NSaved= 6 IEnMin= 6 EnMin= -114.499925903866     IErMin= 6 ErrMin= 1.16D-08
 ErrMax= 1.16D-08  0.00D+00 EMaxC= 1.00D-01 BMatC= 4.25D-15 BMatP= 1.04D-13
 IDIUse=1 WtCom= 1.00D+00 WtEn= 0.00D+00
 Coeff-Com:  0.102D-03-0.144D-02-0.440D-02-0.291D-02 0.122D+00 0.887D+00
 Coeff:      0.102D-03-0.144D-02-0.440D-02-0.291D-02 0.122D+00 0.887D+00
 Gap=     0.222 Goal=   None    Shift=    0.000
 RMSDP=1.50D-09 MaxDP=1.58D-08 DE=-2.84D-13 OVMax= 1.65D-08

 SCF Done:  E(RB3LYP) =  -114.499925904     A.U. after   12 cycles
            NFock= 12  Conv=0.15D-08     -V/T= 2.0093
 KE= 1.134417493028D+02 PE=-3.302803012186D+02 EE= 7.139459692458D+01
 Leave Link  502 at Thu Mar 19 18:31:13 2026, MaxMem=   536870912 cpu:         3.0
 (Enter C:\G09W\l601.exe)
 Copying SCF densities to generalized density rwf, IOpCl= 0 IROHF=0.

 **********************************************************************

            Population analysis using the SCF density.

 **********************************************************************

 Orbital symmetries:
       Occupied  (A1) (A1) (A1) (A1) (B2) (A1) (B1) (B2)
       Virtual   (B1) (A1) (B2) (A1) (B1) (A1) (B2) (A1) (B2) (A1)
                 (A1) (B1) (B2) (A1) (B1) (A2) (A1) (B2) (A2) (A1)
                 (A1) (B1) (B2) (A1) (A1) (A1)
 The electronic state is 1-A1.
 Alpha  occ. eigenvalues --  -19.16976 -10.28954  -1.05044  -0.64203  -0.49457
 Alpha  occ. eigenvalues --   -0.44658  -0.39296  -0.26899
 Alpha virt. eigenvalues --   -0.04694   0.10296   0.18161   0.21603   0.50823
 Alpha virt. eigenvalues --    0.61403   0.62532   0.67853   0.81839   0.84224
 Alpha virt. eigenvalues --    0.89526   0.96015   1.05833   1.37152   1.50122
 Alpha virt. eigenvalues --    1.51116   1.69145   1.84782   1.92476   2.12137
 Alpha virt. eigenvalues --    2.25197   2.52274   2.64370   2.89111   3.66956
 Alpha virt. eigenvalues --    4.05815
          Condensed to atoms (all electrons):
               1          2          3          4
     1  C    4.714490   0.543831   0.332067   0.332067
     2  O    0.543831   7.895675  -0.053438  -0.053438
     3  H    0.332067  -0.053438   0.687652  -0.093822
     4  H    0.332067  -0.053438  -0.093822   0.687652
 Mulliken charges:
               1
     1  C    0.077545
     2  O   -0.332629
     3  H    0.127542
     4  H    0.127542
 Sum of Mulliken charges =   0.00000
 Mulliken charges with hydrogens summed into heavy atoms:
               1
     1  C    0.332629
     2  O   -0.332629
 Electronic spatial extent (au):  <R**2>=             60.7741
 Charge=              0.0000 electrons
 Dipole moment (field-independent basis, Debye):
    X=              0.0000    Y=              0.0000    Z=             -2.2704  Tot=              2.2704
 Quadrupole moment (field-independent basis, Debye-Ang):
   XX=            -11.4300   YY=            -11.4770   ZZ=            -11.8639
   XY=              0.0000   XZ=              0.0000   YZ=              0.0000
 Traceless Quadrupole moment (field-independent basis, Debye-Ang):
   XX=              0.1603   YY=              0.1133   ZZ=             -0.2736
   XY=              0.0000   XZ=              0.0000   YZ=              0.0000
 Octapole moment (field-independent basis, Debye-Ang**2):
  XXX=              0.0000  YYY=              0.0000  ZZZ=              1.0756  XYY=              0.0000
  XXY=              0.0000  XXZ=              0.8874  XZZ=              0.0000  YZZ=              0.0000
  YYZ=             -0.0395  XYZ=              0.0000
 Hexadecapole moment (field-independent basis, Debye-Ang**3):
 XXXX=             -9.2418 YYYY=            -17.6798 ZZZZ=            -44.8294 XXXY=              0.0000
 XXXZ=              0.0000 YYYX=              0.0000 YYYZ=              0.0000 ZZZX=              0.0000
 ZZZY=              0.0000 XXYY=             -4.6959 XXZZ=             -8.9940 YYZZ=            -10.1490
 XXYZ=              0.0000 YYXZ=              0.0000 ZZXY=              0.0000
 N-N= 3.094402908737D+01 E-N=-3.302803011382D+02  KE= 1.134417493028D+02
 Symmetry A1   KE= 1.030867985548D+02
 Symmetry A2   KE= 9.184521671670D-34
 Symmetry B1   KE= 3.619782348102D+00
 Symmetry B2   KE= 6.735168399906D+00
 No NMR shielding tensors so no spin-rotation constants.
 Leave Link  601 at Thu Mar 19 18:31:13 2026, MaxMem=   536870912 cpu:         0.0
 (Enter C:\G09W\l701.exe)
 Compute integral first derivatives.
 ... and contract with generalized density number  0.
 Leave Link  701 at Thu Mar 19 18:31:14 2026, MaxMem=   536870912 cpu:         0.0
 (Enter C:\G09W\l702.exe)
 L702 exits ... SP integral derivatives will be done elsewhere.
 Leave Link  702 at Thu Mar 19 18:31:14 2026, MaxMem=   536870912 cpu:         0.0
 (Enter C:\G09W\l703.exe)
 Compute integral first derivatives, UseDBF=F ICtDFT=           0.
 Integral derivatives from FoFJK, PRISM(SPDF).
 Calling FoFJK, ICntrl=      2127 FMM=F ISym2X=1 I1Cent= 0 IOpClX= 0 NMat=1 NMatS=1 NMatT=0.
 FoFJK:  IHMeth= 1 ICntrl=    2127 DoSepK=F KAlg= 0 I1Cent=   0 FoldK=F
 IRaf=         0 NMat=   1 IRICut=       1 DoRegI=T DoRafI=F ISym2E= 1.
 FoFCou: FMM=F IPFlag=           0 FMFlag=      100000 FMFlg1=         800
         NFxFlg=           0 DoJE=F BraDBF=F KetDBF=F FulRan=T
         wScrn=  0.000000 ICntrl=    2127 IOpCl=  0 I1Cent=           0 NGrid=           0
         NMat0=    1 NMatS0=      1 NMatT0=    0 NMatD0=    1 NMtDS0=    0 NMtDT0=    0
 Petite list used in FoFCou.
 Leave Link  703 at Thu Mar 19 18:31:15 2026, MaxMem=   536870912 cpu:         0.0
 (Enter C:\G09W\l716.exe)
 Dipole        = 2.02515372D-17-1.33226763D-15-8.93258349D-01
 ***** Axes restored to original set *****
 -------------------------------------------------------------------
 Center     Atomic                   Forces (Hartrees/Bohr)
 Number     Number              X              Y              Z
 -------------------------------------------------------------------
      1        6           0.030429646   -0.005484274    0.000005635
      2        8          -0.027265668    0.004914036   -0.000005049
      3        1          -0.002240505   -0.003368678   -0.000000640
      4        1          -0.000923473    0.003938915    0.000000055
 -------------------------------------------------------------------
 Cartesian Forces:  Max     0.030429646 RMS     0.012098005
 Leave Link  716 at Thu Mar 19 18:31:15 2026, MaxMem=   536870912 cpu:         0.0
 (Enter C:\G09W\l103.exe)

 GradGradGradGradGradGradGradGradGradGradGradGradGradGradGradGradGradGrad
 Berny optimization.
 FormGI is forming the generalized inverse of G from B-inverse, IUseBI=4.
 Internal  Forces:  Max     0.027704954 RMS     0.010694744
 Search for a local minimum.
 Step number   1 out of a maximum of   20
 All quantities printed in internal units (Hartrees-Bohrs-Radians)
 RMS Force = .10695D-01 SwitMx=.10000D-02 MixMth= 1
 Mixed Optimization -- RFO/linear search
 Second derivative matrix not updated -- first step.
 The second derivative matrix:
                          R1        R2        R3        A1        A2
           R1           0.93360
           R2           0.00000   0.33495
           R3           0.00000   0.00000   0.33495
           A1           0.00000   0.00000   0.00000   0.16000
           A2           0.00000   0.00000   0.00000   0.00000   0.16000
           A3           0.00000   0.00000   0.00000   0.00000   0.00000
           D1           0.00000   0.00000   0.00000   0.00000   0.00000
                          A3        D1
           A3           0.16000
           D1           0.00000   0.00230
 ITU=  0
     Eigenvalues ---    0.00230   0.16000   0.16000   0.33495   0.33495
     Eigenvalues ---    0.93360
 RFO step:  Lambda=-9.23427100D-04 EMin= 2.30000000D-03
 Linear search not attempted -- first point.
 Iteration  1 RMS(Cart)=  0.01167079 RMS(Int)=  0.00001464
 Iteration  2 RMS(Cart)=  0.00001301 RMS(Int)=  0.00000001
 Iteration  3 RMS(Cart)=  0.00000000 RMS(Int)=  0.00000000
 ITry= 1 IFail=0 DXMaxC= 2.11D-02 DCOld= 1.00D+10 DXMaxT= 3.00D-01 DXLimC= 3.00D+00 Rises=F
 ClnCor:  largest displacement from symmetrization is 1.35D-09 for atom     1.
 Variable       Old X    -DE/DX   Delta X   Delta X   Delta X     New X
                                 (Linear)    (Quad)   (Total)
    R1        2.31422  -0.02770   0.00000  -0.02965  -0.02965   2.28457
    R2        2.08191   0.00400   0.00000   0.01190   0.01190   2.09381
    R3        2.08191   0.00400   0.00000   0.01190   0.01190   2.09381
    A1        2.13342  -0.00043   0.00000  -0.00268  -0.00268   2.13074
    A2        2.13342  -0.00043   0.00000  -0.00268  -0.00268   2.13074
    A3        2.01635   0.00086   0.00000   0.00535   0.00535   2.02171
    D1        3.14159   0.00000   0.00000   0.00000   0.00000   3.14159
         Item               Value     Threshold  Converged?
 Maximum Force            0.027705     0.000450     NO 
 RMS     Force            0.010695     0.000300     NO 
 Maximum Displacement     0.021092     0.001800     NO 
 RMS     Displacement     0.011679     0.001200     NO 
 Predicted change in Energy=-4.622707D-04
 Lowest energy point so far.  Saving SCF results.
 GradGradGradGradGradGradGradGradGradGradGradGradGradGradGradGradGradGrad

 Leave Link  103 at Thu Mar 19 18:31:16 2026, MaxMem=   536870912 cpu:         1.0
 (Enter C:\G09W\l202.exe)
                          Input orientation:                          
 ---------------------------------------------------------------------
 Center     Atomic      Atomic             Coordinates (Angstroms)
 Number     Number       Type             X           Y           Z
 ---------------------------------------------------------------------
      1          6           0       -0.007859    0.001416   -0.000001
      2          8           0        1.181915   -0.213014    0.000219
      3          1           0       -0.753542   -0.818106   -0.000196
      4          1           0       -0.420515    1.029704   -0.000021
 ---------------------------------------------------------------------
                    Distance matrix (angstroms):
                    1          2          3          4
     1  C    0.000000
     2  O    1.208944   0.000000
     3  H    1.107998   2.027839   0.000000
     4  H    1.107998   2.027839   1.877580   0.000000
 Stoichiometry    CH2O
 Framework group  C2V[C2(CO),SGV(H2)]
 Deg. of freedom     3
 Full point group                 C2V     NOp   4
 RotChk:  IX=3 Diff= 6.46D-16
 Largest Abelian subgroup         C2V     NOp   4
 Largest concise Abelian subgroup C2      NOp   2
                         Standard orientation:                         
 ---------------------------------------------------------------------
 Center     Atomic      Atomic             Coordinates (Angstroms)
 Number     Number       Type             X           Y           Z
 ---------------------------------------------------------------------
      1          6           0        0.000000    0.000000   -0.530909
      2          8           0        0.000000    0.000000    0.678034
      3          1           0        0.000000   -0.938790   -1.119410
      4          1           0        0.000000    0.938790   -1.119410
 ---------------------------------------------------------------------
 Rotational constants (GHZ):    284.4886670     38.5856555     33.9772645
 Leave Link  202 at Thu Mar 19 18:31:16 2026, MaxMem=   536870912 cpu:         0.0
 (Enter C:\G09W\l301.exe)
 Standard basis: 6-31G(d) (6D, 7F)
 Ernie: Thresh=  0.10000D-02 Tol=  0.10000D-05 Strict=F.
 There are    18 symmetry adapted cartesian basis functions of A1  symmetry.
 There are     2 symmetry adapted cartesian basis functions of A2  symmetry.
 There are     6 symmetry adapted cartesian basis functions of B1  symmetry.
 There are     8 symmetry adapted cartesian basis functions of B2  symmetry.
 There are    18 symmetry adapted basis functions of A1  symmetry.
 There are     2 symmetry adapted basis functions of A2  symmetry.
 There are     6 symmetry adapted basis functions of B1  symmetry.
 There are     8 symmetry adapted basis functions of B2  symmetry.
    34 basis functions,    64 primitive gaussians,    34 cartesian basis functions
     8 alpha electrons        8 beta electrons
       nuclear repulsion energy        31.1988086445 Hartrees.
 IExCor=  402 DFT=T Ex+Corr=B3LYP ExCW=0 ScaHFX=  0.200000
 ScaDFX=  0.800000  0.720000  1.000000  0.810000 ScalE2=  1.000000  1.000000
 IRadAn=      0 IRanWt=     -1 IRanGd=            0 ICorTp=0 IEmpDi=  4
 NAtoms=    4 NActive=    4 NUniq=    3 SFac= 1.78D+00 NAtFMM=   60 NAOKFM=F Big=F
 Integral buffers will be    131072 words long.
 Raffenetti 2 integral format.
 Two-electron integral symmetry is turned on.
 Leave Link  301 at Thu Mar 19 18:31:16 2026, MaxMem=   536870912 cpu:         0.0
 (Enter C:\G09W\l302.exe)
 NPDir=0 NMtPBC=     1 NCelOv=     1 NCel=       1 NClECP=     1 NCelD=      1
         NCelK=      1 NCelE2=     1 NClLst=     1 CellRange=     0.0.
 One-electron integrals computed using PRISM.
 One-electron integral symmetry used in STVInt
 NBasis=    34 RedAO= T EigKep=  1.81D-02  NBF=    18     2     6     8
 NBsUse=    34 1.00D-06 EigRej= -1.00D+00 NBFU=    18     2     6     8
 Precomputing XC quadrature grid using
 IXCGrd= 4 IRadAn=           0 IRanWt=          -1 IRanGd=           0 AccXCQ= 0.00D+00.
 Generated NRdTot=       0 NPtTot=           0 NUsed=           0 NTot=          32
 NSgBfM=    34    34    34    34    34 MxSgAt=     4 MxSgA2=     4.
 Leave Link  302 at Thu Mar 19 18:31:17 2026, MaxMem=   536870912 cpu:         1.0
 (Enter C:\G09W\l303.exe)
 DipDrv:  MaxL=1.
 Leave Link  303 at Thu Mar 19 18:31:17 2026, MaxMem=   536870912 cpu:         0.0
 (Enter C:\G09W\l401.exe)
 Initial guess from the checkpoint file:  "formaldehyde_rdkit.chk"
 B after Tr=     0.000000    0.000000    0.000000
         Rot=    1.000000    0.000000    0.000000    0.000000 Ang=   0.00 deg.
 Guess basis will be translated and rotated to current coordinates.
 JPrj=2 DoOrth=T DoCkMO=T.
 Initial guess orbital symmetries:
       Occupied  (A1) (A1) (A1) (A1) (B2) (A1) (B1) (B2)
       Virtual   (A1) (A1) (A1) (A1) (A1) (A1) (A1) (A1) (A1) (A1)
                 (A1) (A1) (A1) (A2) (A2) (B1) (B1) (B1) (B1) (B1)
                 (B2) (B2) (B2) (B2) (B2) (B2)
 The electronic state of the initial guess is 1-A1.
 Generating alternative initial guess.
 ExpMin= 1.61D-01 ExpMax= 5.48D+03 ExpMxC= 8.25D+02 IAcc=1 IRadAn=         1 AccDes= 0.00D+00
 Harris functional with IExCor=  402 and IRadAn=       1 diagonalized for initial guess.
 HarFok:  IExCor=  402 AccDes= 0.00D+00 IRadAn=         1 IDoV= 1 UseB2=F ITyADJ=14
 ICtDFT=  3500011 ScaDFX=  1.000000  1.000000  1.000000  1.000000
 FoFCou: FMM=F IPFlag=           0 FMFlag=      100000 FMFlg1=           0
         NFxFlg=           0 DoJE=T BraDBF=F KetDBF=T FulRan=T
         wScrn=  0.000000 ICntrl=     500 IOpCl=  0 I1Cent=   200000004 NGrid=           0
         NMat0=    1 NMatS0=      1 NMatT0=    0 NMatD0=    1 NMtDS0=    0 NMtDT0=    0
 Petite list used in FoFCou.
 Harris En= -114.508989629951    
 Leave Link  401 at Thu Mar 19 18:31:18 2026, MaxMem=   536870912 cpu:         1.0
 (Enter C:\G09W\l502.exe)
 Closed shell SCF:
 Using DIIS extrapolation, IDIIS=  1040.
 Integral symmetry usage will be decided dynamically.
 Keep R1 ints in memory in symmetry-blocked form, NReq=1062354.
 IVT=       22562 IEndB=       22562 NGot=   536870912 MDV=   536795673
 LenX=   536795673 LenY=   536794076
 Requested convergence on RMS density matrix=1.00D-08 within 128 cycles.
 Requested convergence on MAX density matrix=1.00D-06.
 Requested convergence on             energy=1.00D-06.
 No special actions if energy rises.
 FoFCou: FMM=F IPFlag=           0 FMFlag=           0 FMFlg1=           0
         NFxFlg=           0 DoJE=F BraDBF=F KetDBF=F FulRan=T
         wScrn=  0.000000 ICntrl=     600 IOpCl=  0 I1Cent=           0 NGrid=           0
         NMat0=    1 NMatS0=    595 NMatT0=    0 NMatD0=    1 NMtDS0=    0 NMtDT0=    0
 Petite list used in FoFCou.
 Integral accuracy reduced to 1.0D-05 until final iterations.

 Cycle   1  Pass 0  IDiag  1:
 E= -114.500280132205    
 DIIS: error= 1.74D-03 at cycle   1 NSaved=   1.
 NSaved= 1 IEnMin= 1 EnMin= -114.500280132205     IErMin= 1 ErrMin= 1.74D-03
 ErrMax= 1.74D-03  0.00D+00 EMaxC= 1.00D-01 BMatC= 1.27D-04 BMatP= 1.27D-04
 IDIUse=3 WtCom= 9.83D-01 WtEn= 1.74D-02
 Coeff-Com:  0.100D+01
 Coeff-En:   0.100D+01
 Coeff:      0.100D+01
 Gap=     1.168 Goal=   None    Shift=    0.000
 GapD=    1.168 DampG=2.000 DampE=1.000 DampFc=2.0000 IDamp=-1.
 RMSDP=5.13D-04 MaxDP=4.10D-03              OVMax= 5.15D-03

 Cycle   2  Pass 0  IDiag  1:
 E= -114.500418332102     Delta-E=       -0.000138199896 Rises=F Damp=F
 DIIS: error= 1.35D-03 at cycle   2 NSaved=   2.
 NSaved= 2 IEnMin= 2 EnMin= -114.500418332102     IErMin= 2 ErrMin= 1.35D-03
 ErrMax= 1.35D-03  0.00D+00 EMaxC= 1.00D-01 BMatC= 5.20D-05 BMatP= 1.27D-04
 IDIUse=3 WtCom= 9.87D-01 WtEn= 1.35D-02
 Coeff-Com:  0.341D+00 0.659D+00
 Coeff-En:   0.000D+00 0.100D+01
 Coeff:      0.337D+00 0.663D+00
 Gap=     0.225 Goal=   None    Shift=    0.000
 RMSDP=2.79D-04 MaxDP=3.48D-03 DE=-1.38D-04 OVMax= 5.53D-03

 Cycle   3  Pass 0  IDiag  1:
 E= -114.500411716283     Delta-E=        0.000006615819 Rises=F Damp=F
 DIIS: error= 1.73D-03 at cycle   3 NSaved=   3.
 NSaved= 3 IEnMin= 2 EnMin= -114.500418332102     IErMin= 2 ErrMin= 1.35D-03
 ErrMax= 1.73D-03  0.00D+00 EMaxC= 1.00D-01 BMatC= 5.71D-05 BMatP= 5.20D-05
 IDIUse=3 WtCom= 9.83D-01 WtEn= 1.73D-02
 Coeff-Com:  0.257D-01 0.505D+00 0.469D+00
 Coeff-En:   0.000D+00 0.531D+00 0.469D+00
 Coeff:      0.252D-01 0.506D+00 0.469D+00
 Gap=     0.226 Goal=   None    Shift=    0.000
 RMSDP=1.66D-04 MaxDP=2.03D-03 DE= 6.62D-06 OVMax= 3.49D-03

 Cycle   4  Pass 0  IDiag  1:
 E= -114.500455098442     Delta-E=       -0.000043382159 Rises=F Damp=F
 DIIS: error= 1.94D-04 at cycle   4 NSaved=   4.
 NSaved= 4 IEnMin= 4 EnMin= -114.500455098442     IErMin= 4 ErrMin= 1.94D-04
 ErrMax= 1.94D-04  0.00D+00 EMaxC= 1.00D-01 BMatC= 8.42D-07 BMatP= 5.20D-05
 IDIUse=3 WtCom= 9.98D-01 WtEn= 1.94D-03
 Coeff-Com: -0.112D-01 0.148D+00 0.198D+00 0.666D+00
 Coeff-En:   0.000D+00 0.000D+00 0.000D+00 0.100D+01
 Coeff:     -0.111D-01 0.147D+00 0.197D+00 0.666D+00
 Gap=     0.226 Goal=   None    Shift=    0.000
 RMSDP=2.04D-05 MaxDP=2.22D-04 DE=-4.34D-05 OVMax= 3.53D-04

 Cycle   5  Pass 0  IDiag  1:
 E= -114.500455811232     Delta-E=       -0.000000712790 Rises=F Damp=F
 DIIS: error= 2.55D-05 at cycle   5 NSaved=   5.
 NSaved= 5 IEnMin= 5 EnMin= -114.500455811232     IErMin= 5 ErrMin= 2.55D-05
 ErrMax= 2.55D-05  0.00D+00 EMaxC= 1.00D-01 BMatC= 2.72D-08 BMatP= 8.42D-07
 IDIUse=1 WtCom= 1.00D+00 WtEn= 0.00D+00
 Coeff-Com: -0.347D-02 0.226D-01 0.469D-01 0.239D+00 0.695D+00
 Coeff:     -0.347D-02 0.226D-01 0.469D-01 0.239D+00 0.695D+00
 Gap=     0.226 Goal=   None    Shift=    0.000
 RMSDP=6.30D-06 MaxDP=5.62D-05 DE=-7.13D-07 OVMax= 6.87D-05

 Initial convergence to 1.0D-05 achieved.  Increase integral accuracy.
 Cycle   6  Pass 1  IDiag  1:
 E= -114.500450914148     Delta-E=        0.000004897084 Rises=F Damp=F
 DIIS: error= 7.91D-06 at cycle   1 NSaved=   1.
 NSaved= 1 IEnMin= 1 EnMin= -114.500450914148     IErMin= 1 ErrMin= 7.91D-06
 ErrMax= 7.91D-06  0.00D+00 EMaxC= 1.00D-01 BMatC= 1.00D-09 BMatP= 1.00D-09
 IDIUse=1 WtCom= 1.00D+00 WtEn= 0.00D+00
 Coeff-Com:  0.100D+01
 Coeff:      0.100D+01
 Gap=     0.226 Goal=   None    Shift=    0.000
 RMSDP=6.30D-06 MaxDP=5.62D-05 DE= 4.90D-06 OVMax= 2.62D-05

 Cycle   7  Pass 1  IDiag  1:
 E= -114.500450915754     Delta-E=       -0.000000001606 Rises=F Damp=F
 DIIS: error= 1.40D-06 at cycle   2 NSaved=   2.
 NSaved= 2 IEnMin= 2 EnMin= -114.500450915754     IErMin= 2 ErrMin= 1.40D-06
 ErrMax= 1.40D-06  0.00D+00 EMaxC= 1.00D-01 BMatC= 6.85D-11 BMatP= 1.00D-09
 IDIUse=1 WtCom= 1.00D+00 WtEn= 0.00D+00
 Coeff-Com:  0.810D-01 0.919D+00
 Coeff:      0.810D-01 0.919D+00
 Gap=     0.226 Goal=   None    Shift=    0.000
 RMSDP=5.37D-07 MaxDP=4.83D-06 DE=-1.61D-09 OVMax= 6.21D-06

 Cycle   8  Pass 1  IDiag  1:
 E= -114.500450915790     Delta-E=       -0.000000000036 Rises=F Damp=F
 DIIS: error= 1.16D-06 at cycle   3 NSaved=   3.
 NSaved= 3 IEnMin= 3 EnMin= -114.500450915790     IErMin= 3 ErrMin= 1.16D-06
 ErrMax= 1.16D-06  0.00D+00 EMaxC= 1.00D-01 BMatC= 4.85D-11 BMatP= 6.85D-11
 IDIUse=1 WtCom= 1.00D+00 WtEn= 0.00D+00
 Coeff-Com: -0.773D-02 0.454D+00 0.554D+00
 Coeff:     -0.773D-02 0.454D+00 0.554D+00
 Gap=     0.226 Goal=   None    Shift=    0.000
 RMSDP=2.31D-07 MaxDP=1.92D-06 DE=-3.64D-11 OVMax= 2.78D-06

 Cycle   9  Pass 1  IDiag  1:
 E= -114.500450915828     Delta-E=       -0.000000000038 Rises=F Damp=F
 DIIS: error= 6.06D-07 at cycle   4 NSaved=   4.
 NSaved= 4 IEnMin= 4 EnMin= -114.500450915828     IErMin= 4 ErrMin= 6.06D-07
 ErrMax= 6.06D-07  0.00D+00 EMaxC= 1.00D-01 BMatC= 7.97D-12 BMatP= 4.85D-11
 IDIUse=1 WtCom= 1.00D+00 WtEn= 0.00D+00
 Coeff-Com: -0.168D-01 0.229D+00 0.334D+00 0.453D+00
 Coeff:     -0.168D-01 0.229D+00 0.334D+00 0.453D+00
 Gap=     0.226 Goal=   None    Shift=    0.000
 RMSDP=6.51D-08 MaxDP=8.57D-07 DE=-3.81D-11 OVMax= 1.50D-06

 Cycle  10  Pass 1  IDiag  1:
 E= -114.500450915834     Delta-E=       -0.000000000006 Rises=F Damp=F
 DIIS: error= 2.40D-07 at cycle   5 NSaved=   5.
 NSaved= 5 IEnMin= 5 EnMin= -114.500450915834     IErMin= 5 ErrMin= 2.40D-07
 ErrMax= 2.40D-07  0.00D+00 EMaxC= 1.00D-01 BMatC= 8.96D-13 BMatP= 7.97D-12
 IDIUse=1 WtCom= 1.00D+00 WtEn= 0.00D+00
 Coeff-Com: -0.500D-02 0.491D-01 0.718D-01 0.280D+00 0.604D+00
 Coeff:     -0.500D-02 0.491D-01 0.718D-01 0.280D+00 0.604D+00
 Gap=     0.226 Goal=   None    Shift=    0.000
 RMSDP=2.13D-08 MaxDP=2.19D-07 DE=-6.14D-12 OVMax= 4.37D-07

 Cycle  11  Pass 1  IDiag  1:
 E= -114.500450915834     Delta-E=        0.000000000000 Rises=F Damp=F
 DIIS: error= 3.48D-09 at cycle   6 NSaved=   6.
 NSaved= 6 IEnMin= 5 EnMin= -114.500450915834     IErMin= 6 ErrMin= 3.48D-09
 ErrMax= 3.48D-09  0.00D+00 EMaxC= 1.00D-01 BMatC= 3.46D-16 BMatP= 8.96D-13
 IDIUse=1 WtCom= 1.00D+00 WtEn= 0.00D+00
 Coeff-Com:  0.722D-05-0.930D-03-0.228D-02 0.536D-02 0.115D-01 0.986D+00
 Coeff:      0.722D-05-0.930D-03-0.228D-02 0.536D-02 0.115D-01 0.986D+00
 Gap=     0.226 Goal=   None    Shift=    0.000
 RMSDP=6.54D-10 MaxDP=6.92D-09 DE= 3.41D-13 OVMax= 1.22D-08

 SCF Done:  E(RB3LYP) =  -114.500450916     A.U. after   11 cycles
            NFock= 11  Conv=0.65D-09     -V/T= 2.0090
 KE= 1.134828292164D+02 PE=-3.308042442200D+02 EE= 7.162215544325D+01
 Leave Link  502 at Thu Mar 19 18:31:21 2026, MaxMem=   536870912 cpu:         2.0
 (Enter C:\G09W\l701.exe)
 Compute integral first derivatives.
 ... and contract with generalized density number  0.
 Leave Link  701 at Thu Mar 19 18:31:21 2026, MaxMem=   536870912 cpu:         0.0
 (Enter C:\G09W\l702.exe)
 L702 exits ... SP integral derivatives will be done elsewhere.
 Leave Link  702 at Thu Mar 19 18:31:22 2026, MaxMem=   536870912 cpu:         0.0
 (Enter C:\G09W\l703.exe)
 Compute integral first derivatives, UseDBF=F ICtDFT=           0.
 Integral derivatives from FoFJK, PRISM(SPDF).
 Calling FoFJK, ICntrl=      2127 FMM=F ISym2X=1 I1Cent= 0 IOpClX= 0 NMat=1 NMatS=1 NMatT=0.
 FoFJK:  IHMeth= 1 ICntrl=    2127 DoSepK=F KAlg= 0 I1Cent=   0 FoldK=F
 IRaf=         0 NMat=   1 IRICut=       1 DoRegI=T DoRafI=F ISym2E= 1.
 FoFCou: FMM=F IPFlag=           0 FMFlag=      100000 FMFlg1=         800
         NFxFlg=           0 DoJE=F BraDBF=F KetDBF=F FulRan=T
         wScrn=  0.000000 ICntrl=    2127 IOpCl=  0 I1Cent=           0 NGrid=           0
         NMat0=    1 NMatS0=      1 NMatT0=    0 NMatD0=    1 NMtDS0=    0 NMtDT0=    0
 Petite list used in FoFCou.
 Leave Link  703 at Thu Mar 19 18:31:23 2026, MaxMem=   536870912 cpu:         0.0
 (Enter C:\G09W\l716.exe)
 Dipole        = 1.93857447D-17-2.22044605D-16-8.65347553D-01
 ***** Axes restored to original set *****
 -------------------------------------------------------------------
 Center     Atomic                   Forces (Hartrees/Bohr)
 Number     Number              X              Y              Z
 -------------------------------------------------------------------
      1        6           0.005761360   -0.001038358    0.000001067
      2        8          -0.003212905    0.000579055   -0.000000595
      3        1          -0.001369397   -0.000298401   -0.000000286
      4        1          -0.001179058    0.000757704   -0.000000186
 -------------------------------------------------------------------
 Cartesian Forces:  Max     0.005761360 RMS     0.002017798
 Leave Link  716 at Thu Mar 19 18:31:24 2026, MaxMem=   536870912 cpu:         0.0
 (Enter C:\G09W\l103.exe)

 GradGradGradGradGradGradGradGradGradGradGradGradGradGradGradGradGradGrad
 Berny optimization.
 Using GEDIIS/GDIIS optimizer.
 FormGI is forming the generalized inverse of G from B-inverse, IUseBI=4.
 Internal  Forces:  Max     0.003264669 RMS     0.001473339
 Search for a local minimum.
 Step number   2 out of a maximum of   20
 All quantities printed in internal units (Hartrees-Bohrs-Radians)
 RMS Force = .14733D-02 SwitMx=.10000D-02 MixMth= 1
 Mixed Optimization -- RFO/linear search
 Update second derivatives using D2CorX and points    1    2
 DE= -5.25D-04 DEPred=-4.62D-04 R= 1.14D+00
 TightC=F SS=  1.41D+00  RLast= 3.47D-02 DXNew= 5.0454D-01 1.0415D-01
 Trust test= 1.14D+00 RLast= 3.47D-02 DXMaxT set to 3.00D-01
 The second derivative matrix:
                          R1        R2        R3        A1        A2
           R1           0.84179
           R2           0.03333   0.32780
           R3           0.03333  -0.00715   0.32780
           A1           0.01730  -0.00167  -0.00167   0.16103
           A2           0.01730  -0.00167  -0.00167   0.00103   0.16103
           A3          -0.03460   0.00334   0.00334  -0.00206  -0.00206
           D1           0.00000   0.00000   0.00000   0.00000   0.00000
                          A3        D1
           A3           0.16413
           D1           0.00000   0.00230
 ITU=  1  0
 Use linear search instead of GDIIS.
     Eigenvalues ---    0.00230   0.16000   0.16305   0.31702   0.33495
     Eigenvalues ---    0.84857
 RFO step:  Lambda=-2.20857521D-05 EMin= 2.30000000D-03
 Quartic linear search produced a step of  0.13533.
 Iteration  1 RMS(Cart)=  0.00297310 RMS(Int)=  0.00001155
 Iteration  2 RMS(Cart)=  0.00001242 RMS(Int)=  0.00000000
 Iteration  3 RMS(Cart)=  0.00000000 RMS(Int)=  0.00000000
 ITry= 1 IFail=0 DXMaxC= 5.68D-03 DCOld= 1.00D+10 DXMaxT= 3.00D-01 DXLimC= 3.00D+00 Rises=F
 ClnCor:  largest displacement from symmetrization is 5.74D-09 for atom     1.
 Variable       Old X    -DE/DX   Delta X   Delta X   Delta X     New X
                                 (Linear)    (Quad)   (Total)
    R1        2.28457  -0.00326  -0.00401  -0.00052  -0.00453   2.28004
    R2        2.09381   0.00114   0.00161   0.00238   0.00399   2.09780
    R3        2.09381   0.00114   0.00161   0.00238   0.00399   2.09780
    A1        2.13074   0.00057  -0.00036   0.00440   0.00403   2.13477
    A2        2.13074   0.00057  -0.00036   0.00440   0.00403   2.13477
    A3        2.02171  -0.00113   0.00072  -0.00879  -0.00807   2.01364
    D1        3.14159   0.00000   0.00000   0.00000   0.00000   3.14159
         Item               Value     Threshold  Converged?
 Maximum Force            0.003265     0.000450     NO 
 RMS     Force            0.001473     0.000300     NO 
 Maximum Displacement     0.005683     0.001800     NO 
 RMS     Displacement     0.002977     0.001200     NO 
 Predicted change in Energy=-1.919188D-05
 Lowest energy point so far.  Saving SCF results.
 GradGradGradGradGradGradGradGradGradGradGradGradGradGradGradGradGradGrad

 Leave Link  103 at Thu Mar 19 18:31:24 2026, MaxMem=   536870912 cpu:         0.0
 (Enter C:\G09W\l202.exe)
                          Input orientation:                          
 ---------------------------------------------------------------------
 Center     Atomic      Atomic             Coordinates (Angstroms)
 Number     Number       Type             X           Y           Z
 ---------------------------------------------------------------------
      1          6           0       -0.004852    0.000874   -0.000001
      2          8           0        1.182562   -0.213131    0.000219
      3          1           0       -0.755263   -0.817189   -0.000197
      4          1           0       -0.422448    1.029446   -0.000021
 ---------------------------------------------------------------------
                    Distance matrix (angstroms):
                    1          2          3          4
     1  C    0.000000
     2  O    1.206545   0.000000
     3  H    1.110110   2.029792   0.000000
     4  H    1.110110   2.029792   1.876387   0.000000
 Stoichiometry    CH2O
 Framework group  C2V[C2(CO),SGV(H2)]
 Deg. of freedom     3
 Full point group                 C2V     NOp   4
 RotChk:  IX=3 Diff= 8.32D-16
 Largest Abelian subgroup         C2V     NOp   4
 Largest concise Abelian subgroup C2      NOp   2
                         Standard orientation:                         
 ---------------------------------------------------------------------
 Center     Atomic      Atomic             Coordinates (Angstroms)
 Number     Number       Type             X           Y           Z
 ---------------------------------------------------------------------
      1          6           0        0.000000    0.000000   -0.529096
      2          8           0        0.000000    0.000000    0.677449
      3          1           0        0.000000   -0.938193   -1.122508
      4          1           0        0.000000    0.938193   -1.122508
 ---------------------------------------------------------------------
 Rotational constants (GHZ):    284.8507431     38.6525288     34.0342819
 Leave Link  202 at Thu Mar 19 18:31:24 2026, MaxMem=   536870912 cpu:         0.0
 (Enter C:\G09W\l301.exe)
 Standard basis: 6-31G(d) (6D, 7F)
 Ernie: Thresh=  0.10000D-02 Tol=  0.10000D-05 Strict=F.
 There are    18 symmetry adapted cartesian basis functions of A1  symmetry.
 There are     2 symmetry adapted cartesian basis functions of A2  symmetry.
 There are     6 symmetry adapted cartesian basis functions of B1  symmetry.
 There are     8 symmetry adapted cartesian basis functions of B2  symmetry.
 There are    18 symmetry adapted basis functions of A1  symmetry.
 There are     2 symmetry adapted basis functions of A2  symmetry.
 There are     6 symmetry adapted basis functions of B1  symmetry.
 There are     8 symmetry adapted basis functions of B2  symmetry.
    34 basis functions,    64 primitive gaussians,    34 cartesian basis functions
     8 alpha electrons        8 beta electrons
       nuclear repulsion energy        31.2258331888 Hartrees.
 IExCor=  402 DFT=T Ex+Corr=B3LYP ExCW=0 ScaHFX=  0.200000
 ScaDFX=  0.800000  0.720000  1.000000  0.810000 ScalE2=  1.000000  1.000000
 IRadAn=      0 IRanWt=     -1 IRanGd=            0 ICorTp=0 IEmpDi=  4
 NAtoms=    4 NActive=    4 NUniq=    3 SFac= 1.78D+00 NAtFMM=   60 NAOKFM=F Big=F
 Integral buffers will be    131072 words long.
 Raffenetti 2 integral format.
 Two-electron integral symmetry is turned on.
 Leave Link  301 at Thu Mar 19 18:31:25 2026, MaxMem=   536870912 cpu:         1.0
 (Enter C:\G09W\l302.exe)
 NPDir=0 NMtPBC=     1 NCelOv=     1 NCel=       1 NClECP=     1 NCelD=      1
         NCelK=      1 NCelE2=     1 NClLst=     1 CellRange=     0.0.
 One-electron integrals computed using PRISM.
 One-electron integral symmetry used in STVInt
 NBasis=    34 RedAO= T EigKep=  1.81D-02  NBF=    18     2     6     8
 NBsUse=    34 1.00D-06 EigRej= -1.00D+00 NBFU=    18     2     6     8
 Precomputing XC quadrature grid using
 IXCGrd= 4 IRadAn=           0 IRanWt=          -1 IRanGd=           0 AccXCQ= 0.00D+00.
 Generated NRdTot=       0 NPtTot=           0 NUsed=           0 NTot=          32
 NSgBfM=    34    34    34    34    34 MxSgAt=     4 MxSgA2=     4.
 Leave Link  302 at Thu Mar 19 18:31:25 2026, MaxMem=   536870912 cpu:         0.0
 (Enter C:\G09W\l303.exe)
 DipDrv:  MaxL=1.
 Leave Link  303 at Thu Mar 19 18:31:26 2026, MaxMem=   536870912 cpu:         0.0
 (Enter C:\G09W\l401.exe)
 Initial guess from the checkpoint file:  "formaldehyde_rdkit.chk"
 B after Tr=     0.000000    0.000000    0.000000
         Rot=    1.000000    0.000000    0.000000    0.000000 Ang=   0.00 deg.
 Guess basis will be translated and rotated to current coordinates.
 JPrj=2 DoOrth=T DoCkMO=T.
 Initial guess orbital symmetries:
       Occupied  (A1) (A1) (A1) (A1) (B2) (A1) (B1) (B2)
       Virtual   (A1) (A1) (A1) (A1) (A1) (A1) (A1) (A1) (A1) (A1)
                 (A1) (A1) (A1) (A2) (A2) (B1) (B1) (B1) (B1) (B1)
                 (B2) (B2) (B2) (B2) (B2) (B2)
 The electronic state of the initial guess is 1-A1.
 Leave Link  401 at Thu Mar 19 18:31:26 2026, MaxMem=   536870912 cpu:         0.0
 (Enter C:\G09W\l502.exe)
 Closed shell SCF:
 Using DIIS extrapolation, IDIIS=  1040.
 Integral symmetry usage will be decided dynamically.
 Keep R1 ints in memory in symmetry-blocked form, NReq=1062354.
 IVT=       22562 IEndB=       22562 NGot=   536870912 MDV=   536795673
 LenX=   536795673 LenY=   536794076
 Requested convergence on RMS density matrix=1.00D-08 within 128 cycles.
 Requested convergence on MAX density matrix=1.00D-06.
 Requested convergence on             energy=1.00D-06.
 No special actions if energy rises.
 FoFCou: FMM=F IPFlag=           0 FMFlag=           0 FMFlg1=           0
         NFxFlg=           0 DoJE=F BraDBF=F KetDBF=F FulRan=T
         wScrn=  0.000000 ICntrl=     600 IOpCl=  0 I1Cent=           0 NGrid=           0
         NMat0=    1 NMatS0=    595 NMatT0=    0 NMatD0=    1 NMtDS0=    0 NMtDT0=    0
 Petite list used in FoFCou.

 Cycle   1  Pass 1  IDiag  1:
 E= -114.500463134931    
 DIIS: error= 3.51D-04 at cycle   1 NSaved=   1.
 NSaved= 1 IEnMin= 1 EnMin= -114.500463134931     IErMin= 1 ErrMin= 3.51D-04
 ErrMax= 3.51D-04  0.00D+00 EMaxC= 1.00D-01 BMatC= 5.70D-06 BMatP= 5.70D-06
 IDIUse=3 WtCom= 9.96D-01 WtEn= 3.51D-03
 Coeff-Com:  0.100D+01
 Coeff-En:   0.100D+01
 Coeff:      0.100D+01
 Gap=     1.167 Goal=   None    Shift=    0.000
 RMSDP=1.18D-04 MaxDP=9.97D-04              OVMax= 1.45D-03

 Cycle   2  Pass 1  IDiag  1:
 E= -114.500468508503     Delta-E=       -0.000005373572 Rises=F Damp=F
 DIIS: error= 4.58D-04 at cycle   2 NSaved=   2.
 NSaved= 2 IEnMin= 2 EnMin= -114.500468508503     IErMin= 1 ErrMin= 3.51D-04
 ErrMax= 4.58D-04  0.00D+00 EMaxC= 1.00D-01 BMatC= 4.86D-06 BMatP= 5.70D-06
 IDIUse=3 WtCom= 9.95D-01 WtEn= 4.58D-03
 Coeff-Com:  0.472D+00 0.528D+00
 Coeff-En:   0.000D+00 0.100D+01
 Coeff:      0.469D+00 0.531D+00
 Gap=     0.226 Goal=   None    Shift=    0.000
 RMSDP=6.60D-05 MaxDP=8.65D-04 DE=-5.37D-06 OVMax= 1.44D-03

 Cycle   3  Pass 1  IDiag  1:
 E= -114.500470217644     Delta-E=       -0.000001709141 Rises=F Damp=F
 DIIS: error= 3.60D-04 at cycle   3 NSaved=   3.
 NSaved= 3 IEnMin= 3 EnMin= -114.500470217644     IErMin= 1 ErrMin= 3.51D-04
 ErrMax= 3.60D-04  0.00D+00 EMaxC= 1.00D-01 BMatC= 2.26D-06 BMatP= 4.86D-06
 IDIUse=3 WtCom= 9.96D-01 WtEn= 3.60D-03
 Coeff-Com: -0.749D-02 0.406D+00 0.602D+00
 Coeff-En:   0.000D+00 0.379D+00 0.621D+00
 Coeff:     -0.747D-02 0.406D+00 0.602D+00
 Gap=     0.226 Goal=   None    Shift=    0.000
 RMSDP=3.57D-05 MaxDP=4.15D-04 DE=-1.71D-06 OVMax= 7.26D-04

 Cycle   4  Pass 1  IDiag  1:
 E= -114.500472013505     Delta-E=       -0.000001795861 Rises=F Damp=F
 DIIS: error= 3.05D-05 at cycle   4 NSaved=   4.
 NSaved= 4 IEnMin= 4 EnMin= -114.500472013505     IErMin= 4 ErrMin= 3.05D-05
 ErrMax= 3.05D-05  0.00D+00 EMaxC= 1.00D-01 BMatC= 1.62D-08 BMatP= 2.26D-06
 IDIUse=1 WtCom= 1.00D+00 WtEn= 0.00D+00
 Coeff-Com: -0.769D-02 0.423D-01 0.134D+00 0.832D+00
 Coeff:     -0.769D-02 0.423D-01 0.134D+00 0.832D+00
 Gap=     0.226 Goal=   None    Shift=    0.000
 RMSDP=3.74D-06 MaxDP=2.69D-05 DE=-1.80D-06 OVMax= 4.89D-05

 Cycle   5  Pass 1  IDiag  1:
 E= -114.500472027517     Delta-E=       -0.000000014012 Rises=F Damp=F
 DIIS: error= 1.67D-06 at cycle   5 NSaved=   5.
 NSaved= 5 IEnMin= 5 EnMin= -114.500472027517     IErMin= 5 ErrMin= 1.67D-06
 ErrMax= 1.67D-06  0.00D+00 EMaxC= 1.00D-01 BMatC= 7.92D-11 BMatP= 1.62D-08
 IDIUse=1 WtCom= 1.00D+00 WtEn= 0.00D+00
 Coeff-Com: -0.155D-02 0.823D-03 0.159D-01 0.132D+00 0.853D+00
 Coeff:     -0.155D-02 0.823D-03 0.159D-01 0.132D+00 0.853D+00
 Gap=     0.226 Goal=   None    Shift=    0.000
 RMSDP=2.67D-07 MaxDP=3.05D-06 DE=-1.40D-08 OVMax= 3.52D-06

 Cycle   6  Pass 1  IDiag  1:
 E= -114.500472027578     Delta-E=       -0.000000000060 Rises=F Damp=F
 DIIS: error= 5.65D-07 at cycle   6 NSaved=   6.
 NSaved= 6 IEnMin= 6 EnMin= -114.500472027578     IErMin= 6 ErrMin= 5.65D-07
 ErrMax= 5.65D-07  0.00D+00 EMaxC= 1.00D-01 BMatC= 1.27D-11 BMatP= 7.92D-11
 IDIUse=1 WtCom= 1.00D+00 WtEn= 0.00D+00
 Coeff-Com: -0.477D-04-0.240D-02-0.135D-02 0.947D-02 0.351D+00 0.643D+00
 Coeff:     -0.477D-04-0.240D-02-0.135D-02 0.947D-02 0.351D+00 0.643D+00
 Gap=     0.226 Goal=   None    Shift=    0.000
 RMSDP=1.30D-07 MaxDP=1.18D-06 DE=-6.04D-11 OVMax= 1.36D-06

 Cycle   7  Pass 1  IDiag  1:
 E= -114.500472027591     Delta-E=       -0.000000000013 Rises=F Damp=F
 DIIS: error= 4.97D-08 at cycle   7 NSaved=   7.
 NSaved= 7 IEnMin= 7 EnMin= -114.500472027591     IErMin= 7 ErrMin= 4.97D-08
 ErrMax= 4.97D-08  0.00D+00 EMaxC= 1.00D-01 BMatC= 1.14D-13 BMatP= 1.27D-11
 IDIUse=1 WtCom= 1.00D+00 WtEn= 0.00D+00
 Coeff-Com:  0.258D-04-0.150D-03-0.427D-03-0.252D-02-0.493D-03 0.827D-01
 Coeff-Com:  0.921D+00
 Coeff:      0.258D-04-0.150D-03-0.427D-03-0.252D-02-0.493D-03 0.827D-01
 Coeff:      0.921D+00
 Gap=     0.226 Goal=   None    Shift=    0.000
 RMSDP=1.02D-08 MaxDP=1.02D-07 DE=-1.30D-11 OVMax= 1.79D-07

 Cycle   8  Pass 1  IDiag  1:
 E= -114.500472027591     Delta-E=        0.000000000000 Rises=F Damp=F
 DIIS: error= 2.39D-08 at cycle   8 NSaved=   8.
 NSaved= 8 IEnMin= 8 EnMin= -114.500472027591     IErMin= 8 ErrMin= 2.39D-08
 ErrMax= 2.39D-08  0.00D+00 EMaxC= 1.00D-01 BMatC= 1.25D-14 BMatP= 1.14D-13
 IDIUse=1 WtCom= 1.00D+00 WtEn= 0.00D+00
 Coeff-Com:  0.606D-05 0.943D-05-0.183D-04-0.729D-03-0.893D-02-0.156D-02
 Coeff-Com:  0.132D+00 0.879D+00
 Coeff:      0.606D-05 0.943D-05-0.183D-04-0.729D-03-0.893D-02-0.156D-02
 Coeff:      0.132D+00 0.879D+00
 Gap=     0.226 Goal=   None    Shift=    0.000
 RMSDP=3.66D-09 MaxDP=2.79D-08 DE=-5.68D-14 OVMax= 3.55D-08

 SCF Done:  E(RB3LYP) =  -114.500472028     A.U. after    8 cycles
            NFock=  8  Conv=0.37D-08     -V/T= 2.0089
 KE= 1.134855992473D+02 PE=-3.308549626282D+02 EE= 7.164305816456D+01
 Leave Link  502 at Thu Mar 19 18:31:27 2026, MaxMem=   536870912 cpu:         1.0
 (Enter C:\G09W\l701.exe)
 Compute integral first derivatives.
 ... and contract with generalized density number  0.
 Leave Link  701 at Thu Mar 19 18:31:28 2026, MaxMem=   536870912 cpu:         1.0
 (Enter C:\G09W\l702.exe)
 L702 exits ... SP integral derivatives will be done elsewhere.
 Leave Link  702 at Thu Mar 19 18:31:28 2026, MaxMem=   536870912 cpu:         0.0
 (Enter C:\G09W\l703.exe)
 Compute integral first derivatives, UseDBF=F ICtDFT=           0.
 Integral derivatives from FoFJK, PRISM(SPDF).
 Calling FoFJK, ICntrl=      2127 FMM=F ISym2X=1 I1Cent= 0 IOpClX= 0 NMat=1 NMatS=1 NMatT=0.
 FoFJK:  IHMeth= 1 ICntrl=    2127 DoSepK=F KAlg= 0 I1Cent=   0 FoldK=F
 IRaf=         0 NMat=   1 IRICut=       1 DoRegI=T DoRafI=F ISym2E= 1.
 FoFCou: FMM=F IPFlag=           0 FMFlag=      100000 FMFlg1=         800
         NFxFlg=           0 DoJE=F BraDBF=F KetDBF=F FulRan=T
         wScrn=  0.000000 ICntrl=    2127 IOpCl=  0 I1Cent=           0 NGrid=           0
         NMat0=    1 NMatS0=      1 NMatT0=    0 NMatD0=    1 NMtDS0=    0 NMtDT0=    0
 Petite list used in FoFCou.
 Leave Link  703 at Thu Mar 19 18:31:29 2026, MaxMem=   536870912 cpu:         0.0
 (Enter C:\G09W\l716.exe)
 Dipole        = 1.91065059D-17 8.88178420D-16-8.60454526D-01
 ***** Axes restored to original set *****
 -------------------------------------------------------------------
 Center     Atomic                   Forces (Hartrees/Bohr)
 Number     Number              X              Y              Z
 -------------------------------------------------------------------
      1        6           0.000462799   -0.000083409    0.000000086
      2        8           0.000049908   -0.000008995    0.000000009
      3        1          -0.000260700    0.000022086   -0.000000050
      4        1          -0.000252007    0.000070318   -0.000000045
 -------------------------------------------------------------------
 Cartesian Forces:  Max     0.000462799 RMS     0.000173353
 Leave Link  716 at Thu Mar 19 18:31:29 2026, MaxMem=   536870912 cpu:         0.0
 (Enter C:\G09W\l103.exe)

 GradGradGradGradGradGradGradGradGradGradGradGradGradGradGradGradGradGrad
 Berny optimization.
 Using GEDIIS/GDIIS optimizer.
 FormGI is forming the generalized inverse of G from B-inverse, IUseBI=4.
 Internal  Forces:  Max     0.000289560 RMS     0.000160138
 Search for a local minimum.
 Step number   3 out of a maximum of   20
 All quantities printed in internal units (Hartrees-Bohrs-Radians)
 RMS Force = .16014D-03 SwitMx=.10000D-02 MixMth= 2
 Mixed Optimization -- En-DIIS/RFO-DIIS
 Update second derivatives using D2CorX and points    1    2    3
 DE= -2.11D-05 DEPred=-1.92D-05 R= 1.10D+00
 TightC=F SS=  1.41D+00  RLast= 1.23D-02 DXNew= 5.0454D-01 3.6752D-02
 Trust test= 1.10D+00 RLast= 1.23D-02 DXMaxT set to 3.00D-01
 The second derivative matrix:
                          R1        R2        R3        A1        A2
           R1           0.92269
           R2           0.02733   0.32485
           R3           0.02733  -0.01010   0.32485
           A1           0.02679  -0.00620  -0.00620   0.15783
           A2           0.02679  -0.00620  -0.00620  -0.00217   0.15783
           A3          -0.05358   0.01240   0.01240   0.00435   0.00435
           D1           0.00000   0.00000   0.00000   0.00000   0.00000
                          A3        D1
           A3           0.15130
           D1           0.00000   0.00230
 ITU=  1  1  0
 Use linear search instead of GDIIS.
     Eigenvalues ---    0.00230   0.13797   0.16000   0.31603   0.33495
     Eigenvalues ---    0.93039
 RFO step:  Lambda=-5.00840545D-07 EMin= 2.30000000D-03
 Quartic linear search produced a step of  0.13709.
 Iteration  1 RMS(Cart)=  0.00088652 RMS(Int)=  0.00000071
 Iteration  2 RMS(Cart)=  0.00000074 RMS(Int)=  0.00000001
 ITry= 1 IFail=0 DXMaxC= 1.18D-03 DCOld= 1.00D+10 DXMaxT= 3.00D-01 DXLimC= 3.00D+00 Rises=F
 ClnCor:  largest displacement from symmetrization is 5.84D-09 for atom     1.
 Variable       Old X    -DE/DX   Delta X   Delta X   Delta X     New X
                                 (Linear)    (Quad)   (Total)
    R1        2.28004   0.00005  -0.00062   0.00045  -0.00017   2.27987
    R2        2.09780   0.00016   0.00055   0.00010   0.00065   2.09845
    R3        2.09780   0.00016   0.00055   0.00010   0.00065   2.09845
    A1        2.13477   0.00014   0.00055   0.00051   0.00107   2.13584
    A2        2.13477   0.00014   0.00055   0.00051   0.00107   2.13584
    A3        2.01364  -0.00029  -0.00111  -0.00103  -0.00214   2.01150
    D1        3.14159   0.00000   0.00000   0.00000   0.00000   3.14159
         Item               Value     Threshold  Converged?
 Maximum Force            0.000290     0.000450     YES
 RMS     Force            0.000160     0.000300     YES
 Maximum Displacement     0.001176     0.001800     YES
 RMS     Displacement     0.000887     0.001200     YES
 Predicted change in Energy=-5.647842D-07
 Optimization completed.
    -- Stationary point found.
                           ----------------------------
                           !   Optimized Parameters   !
                           ! (Angstroms and Degrees)  !
 --------------------------                            --------------------------
 ! Name  Definition              Value          Derivative Info.                !
 --------------------------------------------------------------------------------
 ! R1    R(1,2)                  1.2065         -DE/DX =    0.0001              !
 ! R2    R(1,3)                  1.1101         -DE/DX =    0.0002              !
 ! R3    R(1,4)                  1.1101         -DE/DX =    0.0002              !
 ! A1    A(2,1,3)              122.3136         -DE/DX =    0.0001              !
 ! A2    A(2,1,4)              122.3136         -DE/DX =    0.0001              !
 ! A3    A(3,1,4)              115.3728         -DE/DX =   -0.0003              !
 ! D1    D(2,1,4,3)            180.0            -DE/DX =    0.0                 !
 --------------------------------------------------------------------------------
 Lowest energy point so far.  Saving SCF results.
 GradGradGradGradGradGradGradGradGradGradGradGradGradGradGradGradGradGrad

 Largest change from initial coordinates is atom    1       0.007 Angstoms.
 Leave Link  103 at Thu Mar 19 18:31:30 2026, MaxMem=   536870912 cpu:         0.0
 (Enter C:\G09W\l202.exe)
                          Input orientation:                          
 ---------------------------------------------------------------------
 Center     Atomic      Atomic             Coordinates (Angstroms)
 Number     Number       Type             X           Y           Z
 ---------------------------------------------------------------------
      1          6           0       -0.004852    0.000874   -0.000001
      2          8           0        1.182562   -0.213131    0.000219
      3          1           0       -0.755263   -0.817189   -0.000197
      4          1           0       -0.422448    1.029446   -0.000021
 ---------------------------------------------------------------------
                    Distance matrix (angstroms):
                    1          2          3          4
     1  C    0.000000
     2  O    1.206545   0.000000
     3  H    1.110110   2.029792   0.000000
     4  H    1.110110   2.029792   1.876387   0.000000
 Stoichiometry    CH2O
 Framework group  C2V[C2(CO),SGV(H2)]
 Deg. of freedom     3
 Full point group                 C2V     NOp   4
 RotChk:  IX=3 Diff= 1.00D-15
 Largest Abelian subgroup         C2V     NOp   4
 Largest concise Abelian subgroup C2      NOp   2
                         Standard orientation:                         
 ---------------------------------------------------------------------
 Center     Atomic      Atomic             Coordinates (Angstroms)
 Number     Number       Type             X           Y           Z
 ---------------------------------------------------------------------
      1          6           0        0.000000    0.000000   -0.529096
      2          8           0        0.000000    0.000000    0.677449
      3          1           0        0.000000   -0.938193   -1.122508
      4          1           0        0.000000    0.938193   -1.122508
 ---------------------------------------------------------------------
 Rotational constants (GHZ):    284.8507431     38.6525288     34.0342819
 Leave Link  202 at Thu Mar 19 18:31:30 2026, MaxMem=   536870912 cpu:         0.0
 (Enter C:\G09W\l601.exe)
 Copying SCF densities to generalized density rwf, IOpCl= 0 IROHF=0.

 **********************************************************************

            Population analysis using the SCF density.

 **********************************************************************

 Orbital symmetries:
       Occupied  (A1) (A1) (A1) (A1) (B2) (A1) (B1) (B2)
       Virtual   (B1) (A1) (B2) (A1) (B1) (A1) (B2) (A1) (B2) (A1)
                 (A1) (B1) (B2) (A1) (A2) (B1) (A1) (B2) (A2) (A1)
                 (A1) (B1) (B2) (A1) (A1) (A1)
 The electronic state is 1-A1.
 Alpha  occ. eigenvalues --  -19.16966 -10.28898  -1.06077  -0.63753  -0.49552
 Alpha  occ. eigenvalues --   -0.44943  -0.39913  -0.26845
 Alpha virt. eigenvalues --   -0.04209   0.10132   0.18210   0.21878   0.50661
 Alpha virt. eigenvalues --    0.62320   0.62717   0.69374   0.81430   0.83732
 Alpha virt. eigenvalues --    0.89062   0.96014   1.05929   1.37730   1.50574
 Alpha virt. eigenvalues --    1.51010   1.68200   1.85029   1.93138   2.12651
 Alpha virt. eigenvalues --    2.27968   2.54107   2.65629   2.91078   3.68316
 Alpha virt. eigenvalues --    4.05558
          Condensed to atoms (all electrons):
               1          2          3          4
     1  C    4.699982   0.557357   0.331145   0.331145
     2  O    0.557357   7.875877  -0.055125  -0.055125
     3  H    0.331145  -0.055125   0.697480  -0.094807
     4  H    0.331145  -0.055125  -0.094807   0.697480
 Mulliken charges:
               1
     1  C    0.080371
     2  O   -0.322985
     3  H    0.121307
     4  H    0.121307
 Sum of Mulliken charges =   0.00000
 Mulliken charges with hydrogens summed into heavy atoms:
               1
     1  C    0.322985
     2  O   -0.322985
 Electronic spatial extent (au):  <R**2>=             60.2962
 Charge=              0.0000 electrons
 Dipole moment (field-independent basis, Debye):
    X=              0.0000    Y=              0.0000    Z=             -2.1871  Tot=              2.1871
 Quadrupole moment (field-independent basis, Debye-Ang):
   XX=            -11.4044   YY=            -11.5041   ZZ=            -11.9293
   XY=              0.0000   XZ=              0.0000   YZ=              0.0000
 Traceless Quadrupole moment (field-independent basis, Debye-Ang):
   XX=              0.2082   YY=              0.1085   ZZ=             -0.3167
   XY=              0.0000   XZ=              0.0000   YZ=              0.0000
 Octapole moment (field-independent basis, Debye-Ang**2):
  XXX=              0.0000  YYY=              0.0000  ZZZ=              1.2481  XYY=              0.0000
  XXY=              0.0000  XXZ=              0.9131  XZZ=              0.0000  YZZ=              0.0000
  YYZ=              0.0640  XYZ=              0.0000
 Hexadecapole moment (field-independent basis, Debye-Ang**3):
 XXXX=             -9.1913 YYYY=            -17.9870 ZZZZ=            -44.3827 XXXY=              0.0000
 XXXZ=              0.0000 YYYX=              0.0000 YYYZ=              0.0000 ZZZX=              0.0000
 ZZZY=              0.0000 XXYY=             -4.7342 XXZZ=             -8.8974 YYZZ=            -10.1638
 XXYZ=              0.0000 YYXZ=              0.0000 ZZXY=              0.0000
 N-N= 3.122583318878D+01 E-N=-3.308549623062D+02  KE= 1.134855992473D+02
 Symmetry A1   KE= 1.031342302909D+02
 Symmetry A2   KE= 5.245471274638D-32
 Symmetry B1   KE= 3.634900690516D+00
 Symmetry B2   KE= 6.716468265918D+00
 No NMR shielding tensors so no spin-rotation constants.
 Leave Link  601 at Thu Mar 19 18:31:30 2026, MaxMem=   536870912 cpu:         0.0
 (Enter C:\G09W\l9999.exe)
 1|1|UNPC-DESKTOP-GS7R1K3|FOpt|RB3LYP|6-31G(d)|C1H2O1|1172|19-Mar-2026|
 0||#p opt B3LYP/6-31G(d)||formaldehyde||0,1|C,-0.0048521098,0.00087428
 05,-0.0000007866|O,1.1825621616,-0.2131309985,0.0002190859|H,-0.755263
 125,-0.8171894939,-0.0001967418|H,-0.4224478474,1.0294455559,-0.000021
 1104||Version=EM64W-G09RevD.01|State=1-A1|HF=-114.500472|RMSD=3.659e-0
 09|RMSF=1.734e-004|Dipole=-0.8468113,0.1526191,-0.0001568|Quadrupole=-
 0.225504,0.0707108,0.1547932,0.0551785,-0.0000712,0.0000058|PG=C02V [C
 2(C1O1),SGV(H2)]||@


 TRUST EVERYONE, BUT CUT THE CARDS.
 Job cpu time:       0 days  0 hours  0 minutes 25.0 seconds.
 File lengths (MBytes):  RWF=      5 Int=      0 D2E=      0 Chk=      1 Scr=      1
 Normal termination of Gaussian 09 at Thu Mar 19 18:31:31 2026.
