 Entering Gaussian System, Link 0=C:\G09W\g09.exe
 Input=dimethylamine_rdkit.com
 Output=C:\workspace\delta_chem\data\raw\dimethylamine\dimethylamine_rdkit.out
 Initial command:
 C:\G09W\l1.exe ".\Gau-4888.inp" "C:\workspace\delta_chem\data\raw\dimethylamine\dimethylamine_rdkit.out" /scrdir=".\"
 Entering Link 1 = C:\G09W\l1.exe PID=     19944.
  
 Copyright (c) 1988,1990,1992,1993,1995,1998,2003,2009,2013,
            Gaussian, Inc.  All Rights Reserved.
  
 This is part of the Gaussian(R) 09 program.  It is based on
 the Gaussian(R) 03 system (copyright 2003, Gaussian, Inc.),
 the Gaussian(R) 98 system (copyright 1998, Gaussian, Inc.),
 the Gaussian(R) 94 system (copyright 1995, Gaussian, Inc.),
 the Gaussian 92(TM) system (copyright 1992, Gaussian, Inc.),
 the Gaussian 90(TM) system (copyright 1990, Gaussian, Inc.),
 the Gaussian 88(TM) system (copyright 1988, Gaussian, Inc.),
 the Gaussian 86(TM) system (copyright 1986, Carnegie Mellon
 University), and the Gaussian 82(TM) system (copyright 1983,
 Carnegie Mellon University). Gaussian is a federally registered
 trademark of Gaussian, Inc.
  
 This software contains proprietary and confidential information,
 including trade secrets, belonging to Gaussian, Inc.
  
 This software is provided under written license and may be
 used, copied, transmitted, or stored only in accord with that
 written license.
  
 The following legend is applicable only to US Government
 contracts under FAR:
  
                    RESTRICTED RIGHTS LEGEND
  
 Use, reproduction and disclosure by the US Government is
 subject to restrictions as set forth in subparagraphs (a)
 and (c) of the Commercial Computer Software - Restricted
 Rights clause in FAR 52.227-19.
  
 Gaussian, Inc.
 340 Quinnipiac St., Bldg. 40, Wallingford CT 06492
  
  
 ---------------------------------------------------------------
 Warning -- This program may not be used in any manner that
 competes with the business of Gaussian, Inc. or will provide
 assistance to any competitor of Gaussian, Inc.  The licensee
 of this program is prohibited from giving any competitor of
 Gaussian, Inc. access to this program.  By using this program,
 the user acknowledges that Gaussian, Inc. is engaged in the
 business of creating and licensing software in the field of
 computational chemistry and represents and warrants to the
 licensee that it is not a competitor of Gaussian, Inc. and that
 it will not use this program in any manner prohibited above.
 ---------------------------------------------------------------
  

 Cite this work as:
 Gaussian 09, Revision D.01,
 M. J. Frisch, G. W. Trucks, H. B. Schlegel, G. E. Scuseria, 
 M. A. Robb, J. R. Cheeseman, G. Scalmani, V. Barone, B. Mennucci, 
 G. A. Petersson, H. Nakatsuji, M. Caricato, X. Li, H. P. Hratchian, 
 A. F. Izmaylov, J. Bloino, G. Zheng, J. L. Sonnenberg, M. Hada, 
 M. Ehara, K. Toyota, R. Fukuda, J. Hasegawa, M. Ishida, T. Nakajima, 
 Y. Honda, O. Kitao, H. Nakai, T. Vreven, J. A. Montgomery, Jr., 
 J. E. Peralta, F. Ogliaro, M. Bearpark, J. J. Heyd, E. Brothers, 
 K. N. Kudin, V. N. Staroverov, T. Keith, R. Kobayashi, J. Normand, 
 K. Raghavachari, A. Rendell, J. C. Burant, S. S. Iyengar, J. Tomasi, 
 M. Cossi, N. Rega, J. M. Millam, M. Klene, J. E. Knox, J. B. Cross, 
 V. Bakken, C. Adamo, J. Jaramillo, R. Gomperts, R. E. Stratmann, 
 O. Yazyev, A. J. Austin, R. Cammi, C. Pomelli, J. W. Ochterski, 
 R. L. Martin, K. Morokuma, V. G. Zakrzewski, G. A. Voth, 
 P. Salvador, J. J. Dannenberg, S. Dapprich, A. D. Daniels, 
 O. Farkas, J. B. Foresman, J. V. Ortiz, J. Cioslowski, 
 and D. J. Fox, Gaussian, Inc., Wallingford CT, 2013.
 
 ******************************************
 Gaussian 09:  EM64W-G09RevD.01 13-Apr-2013
                19-Mar-2026 
 ******************************************
 %NProcShared=4
 Will use up to    4 processors via shared memory.
 %Mem=4GB
 %Chk=dimethylamine_rdkit.chk
 ---------------------
 #p opt B3LYP/6-31G(d)
 ---------------------
 1/14=-1,18=20,19=15,26=3,38=1/1,3;
 2/9=110,12=2,17=6,18=5,40=1/2;
 3/5=1,6=6,7=1,11=2,16=1,25=1,30=1,71=1,74=-5/1,2,3;
 4//1;
 5/5=2,38=5/2;
 6/7=2,8=2,9=2,10=2,28=1/1;
 7//1,2,3,16;
 1/14=-1,18=20,19=15,26=3/3(2);
 2/9=110/2;
 99//99;
 2/9=110/2;
 3/5=1,6=6,7=1,11=2,16=1,25=1,30=1,71=1,74=-5/1,2,3;
 4/5=5,16=3,69=1/1;
 5/5=2,38=5/2;
 7//1,2,3,16;
 1/14=-1,18=20,19=15,26=3/3(-5);
 2/9=110/2;
 6/7=2,8=2,9=2,10=2,19=2,28=1/1;
 99/9=1/99;
 Leave Link    1 at Thu Mar 19 18:41:47 2026, MaxMem=   536870912 cpu:         0.0
 (Enter C:\G09W\l101.exe)
 -------------
 dimethylamine
 -------------
 Symbolic Z-matrix:
 Charge =  0 Multiplicity = 1
 C                    -1.19804  -0.05009   0.13733 
 N                     0.06507  -0.70742  -0.16958 
 C                     1.14606   0.26354  -0.2716 
 H                    -1.47775   0.6574   -0.65002 
 H                    -1.15342   0.47869   1.09507 
 H                    -1.99254  -0.79986   0.20337 
 H                     0.28331  -1.37613   0.56855 
 H                     1.28932   0.80552   0.66893 
 H                     0.95734   0.98321  -1.07483 
 H                     2.08066  -0.25487  -0.50721 
 
 NAtoms=     10 NQM=       10 NQMF=       0 NMMI=      0 NMMIF=      0
                NMic=       0 NMicF=      0.
                    Isotopes and Nuclear Properties:
 (Nuclear quadrupole moments (NQMom) in fm**2, nuclear magnetic moments (NMagM)
  in nuclear magnetons)

  Atom         1           2           3           4           5           6           7           8           9          10
 IAtWgt=          12          14          12           1           1           1           1           1           1           1
 AtmWgt=  12.0000000  14.0030740  12.0000000   1.0078250   1.0078250   1.0078250   1.0078250   1.0078250   1.0078250   1.0078250
 NucSpn=           0           2           0           1           1           1           1           1           1           1
 AtZEff=   0.0000000   0.0000000   0.0000000   0.0000000   0.0000000   0.0000000   0.0000000   0.0000000   0.0000000   0.0000000
 NQMom=    0.0000000   2.0440000   0.0000000   0.0000000   0.0000000   0.0000000   0.0000000   0.0000000   0.0000000   0.0000000
 NMagM=    0.0000000   0.4037610   0.0000000   2.7928460   2.7928460   2.7928460   2.7928460   2.7928460   2.7928460   2.7928460
 AtZNuc=   6.0000000   7.0000000   6.0000000   1.0000000   1.0000000   1.0000000   1.0000000   1.0000000   1.0000000   1.0000000
 Leave Link  101 at Thu Mar 19 18:41:47 2026, MaxMem=   536870912 cpu:         0.0
 (Enter C:\G09W\l103.exe)

 GradGradGradGradGradGradGradGradGradGradGradGradGradGradGradGradGradGrad
 Berny optimization.
 Initialization pass.
                           ----------------------------
                           !    Initial Parameters    !
                           ! (Angstroms and Degrees)  !
 --------------------------                            --------------------------
 ! Name  Definition              Value          Derivative Info.                !
 --------------------------------------------------------------------------------
 ! R1    R(1,2)                  1.4566         estimate D2E/DX2                !
 ! R2    R(1,4)                  1.0949         estimate D2E/DX2                !
 ! R3    R(1,5)                  1.0949         estimate D2E/DX2                !
 ! R4    R(1,6)                  1.0944         estimate D2E/DX2                !
 ! R5    R(2,3)                  1.4566         estimate D2E/DX2                !
 ! R6    R(2,7)                  1.0196         estimate D2E/DX2                !
 ! R7    R(3,8)                  1.0949         estimate D2E/DX2                !
 ! R8    R(3,9)                  1.0948         estimate D2E/DX2                !
 ! R9    R(3,10)                 1.0944         estimate D2E/DX2                !
 ! A1    A(2,1,4)              111.2002         estimate D2E/DX2                !
 ! A2    A(2,1,5)              111.5242         estimate D2E/DX2                !
 ! A3    A(2,1,6)              109.4558         estimate D2E/DX2                !
 ! A4    A(4,1,5)              109.1093         estimate D2E/DX2                !
 ! A5    A(4,1,6)              107.4954         estimate D2E/DX2                !
 ! A6    A(5,1,6)              107.9179         estimate D2E/DX2                !
 ! A7    A(1,2,3)              110.9459         estimate D2E/DX2                !
 ! A8    A(1,2,7)              109.2103         estimate D2E/DX2                !
 ! A9    A(3,2,7)              109.2103         estimate D2E/DX2                !
 ! A10   A(2,3,8)              111.5243         estimate D2E/DX2                !
 ! A11   A(2,3,9)              111.2002         estimate D2E/DX2                !
 ! A12   A(2,3,10)             109.4558         estimate D2E/DX2                !
 ! A13   A(8,3,9)              109.1093         estimate D2E/DX2                !
 ! A14   A(8,3,10)             107.9178         estimate D2E/DX2                !
 ! A15   A(9,3,10)             107.4955         estimate D2E/DX2                !
 ! D1    D(4,1,2,3)             61.0999         estimate D2E/DX2                !
 ! D2    D(4,1,2,7)           -178.4712         estimate D2E/DX2                !
 ! D3    D(5,1,2,3)            -60.9351         estimate D2E/DX2                !
 ! D4    D(5,1,2,7)             59.4937         estimate D2E/DX2                !
 ! D5    D(6,1,2,3)            179.7199         estimate D2E/DX2                !
 ! D6    D(6,1,2,7)            -59.8513         estimate D2E/DX2                !
 ! D7    D(1,2,3,8)             60.9351         estimate D2E/DX2                !
 ! D8    D(1,2,3,9)            -61.1            estimate D2E/DX2                !
 ! D9    D(1,2,3,10)          -179.72           estimate D2E/DX2                !
 ! D10   D(7,2,3,8)            -59.4937         estimate D2E/DX2                !
 ! D11   D(7,2,3,9)            178.4712         estimate D2E/DX2                !
 ! D12   D(7,2,3,10)            59.8511         estimate D2E/DX2                !
 --------------------------------------------------------------------------------
 Trust Radius=3.00D-01 FncErr=1.00D-07 GrdErr=1.00D-06
 Number of steps in this run=     46 maximum allowed number of steps=    100.
 GradGradGradGradGradGradGradGradGradGradGradGradGradGradGradGradGradGrad

 Leave Link  103 at Thu Mar 19 18:41:48 2026, MaxMem=   536870912 cpu:         0.0
 (Enter C:\G09W\l202.exe)
                          Input orientation:                          
 ---------------------------------------------------------------------
 Center     Atomic      Atomic             Coordinates (Angstroms)
 Number     Number       Type             X           Y           Z
 ---------------------------------------------------------------------
      1          6           0       -1.198040   -0.050093    0.137325
      2          7           0        0.065068   -0.707416   -0.169579
      3          6           0        1.146055    0.263544   -0.271604
      4          1           0       -1.477749    0.657399   -0.650023
      5          1           0       -1.153419    0.478688    1.095065
      6          1           0       -1.992544   -0.799859    0.203366
      7          1           0        0.283308   -1.376126    0.568554
      8          1           0        1.289322    0.805524    0.668926
      9          1           0        0.957337    0.983209   -1.074825
     10          1           0        2.080660   -0.254871   -0.507205
 ---------------------------------------------------------------------
                    Distance matrix (angstroms):
                    1          2          3          4          5
     1  C    0.000000
     2  N    1.456608   0.000000
     3  C    2.400078   1.456607   0.000000
     4  H    1.094851   2.115143   2.680050   0.000000
     5  H    1.094928   2.119169   2.683589   1.783945   0.000000
     6  H    1.094416   2.093180   3.347720   1.765471   1.770294
     7  H    2.034383   1.019628   2.034383   2.953214   2.404524
     8  H    2.683589   2.119169   1.094927   3.068917   2.501080
     9  H    2.680050   2.115142   1.094850   2.493241   3.068918
    10  H    3.347720   2.093179   1.094417   3.676263   3.683021
                    6          7          8          9         10
     6  H    0.000000
     7  H    2.375910   0.000000
     8  H    3.683021   2.404524   0.000000
     9  H    3.676262   2.953214   1.783943   0.000000
    10  H    4.170481   2.375909   1.770293   1.765471   0.000000
 Stoichiometry    C2H7N
 Framework group  C1[X(C2H7N)]
 Deg. of freedom    24
 Full point group                 C1      NOp   1
 Largest Abelian subgroup         C1      NOp   1
 Largest concise Abelian subgroup C1      NOp   1
                         Standard orientation:                         
 ---------------------------------------------------------------------
 Center     Atomic      Atomic             Coordinates (Angstroms)
 Number     Number       Type             X           Y           Z
 ---------------------------------------------------------------------
      1          6           0        1.200039   -0.230054    0.021190
      2          7           0        0.000000    0.574235   -0.165173
      3          6           0       -1.200039   -0.230055    0.021190
      4          1           0        1.246621   -1.046325   -0.706980
      5          1           0        1.250540   -0.648044    1.031932
      6          1           0        2.085241    0.395734   -0.128991
      7          1           0        0.000000    1.338280    0.510013
      8          1           0       -1.250540   -0.648045    1.031931
      9          1           0       -1.246621   -1.046324   -0.706980
     10          1           0       -2.085241    0.395735   -0.128989
 ---------------------------------------------------------------------
 Rotational constants (GHZ):     34.0290201      9.4693396      8.3252858
 Leave Link  202 at Thu Mar 19 18:41:48 2026, MaxMem=   536870912 cpu:         0.0
 (Enter C:\G09W\l301.exe)
 Standard basis: 6-31G(d) (6D, 7F)
 Ernie: Thresh=  0.10000D-02 Tol=  0.10000D-05 Strict=F.
 There are    59 symmetry adapted cartesian basis functions of A   symmetry.
 There are    59 symmetry adapted basis functions of A   symmetry.
    59 basis functions,   112 primitive gaussians,    59 cartesian basis functions
    13 alpha electrons       13 beta electrons
       nuclear repulsion energy        84.2861244729 Hartrees.
 IExCor=  402 DFT=T Ex+Corr=B3LYP ExCW=0 ScaHFX=  0.200000
 ScaDFX=  0.800000  0.720000  1.000000  0.810000 ScalE2=  1.000000  1.000000
 IRadAn=      0 IRanWt=     -1 IRanGd=            0 ICorTp=0 IEmpDi=  4
 NAtoms=   10 NActive=   10 NUniq=   10 SFac= 1.00D+00 NAtFMM=   60 NAOKFM=F Big=F
 Integral buffers will be    131072 words long.
 Raffenetti 2 integral format.
 Two-electron integral symmetry is turned on.
 Leave Link  301 at Thu Mar 19 18:41:48 2026, MaxMem=   536870912 cpu:         0.0
 (Enter C:\G09W\l302.exe)
 NPDir=0 NMtPBC=     1 NCelOv=     1 NCel=       1 NClECP=     1 NCelD=      1
         NCelK=      1 NCelE2=     1 NClLst=     1 CellRange=     0.0.
 One-electron integrals computed using PRISM.
 NBasis=    59 RedAO= T EigKep=  7.50D-03  NBF=    59
 NBsUse=    59 1.00D-06 EigRej= -1.00D+00 NBFU=    59
 Precomputing XC quadrature grid using
 IXCGrd= 4 IRadAn=           0 IRanWt=          -1 IRanGd=           0 AccXCQ= 0.00D+00.
 Generated NRdTot=       0 NPtTot=           0 NUsed=           0 NTot=          32
 NSgBfM=    59    59    59    59    59 MxSgAt=    10 MxSgA2=    10.
 Leave Link  302 at Thu Mar 19 18:41:48 2026, MaxMem=   536870912 cpu:         0.0
 (Enter C:\G09W\l303.exe)
 DipDrv:  MaxL=1.
 Leave Link  303 at Thu Mar 19 18:41:49 2026, MaxMem=   536870912 cpu:         0.0
 (Enter C:\G09W\l401.exe)
 ExpMin= 1.61D-01 ExpMax= 4.17D+03 ExpMxC= 6.27D+02 IAcc=1 IRadAn=         1 AccDes= 0.00D+00
 Harris functional with IExCor=  402 and IRadAn=       1 diagonalized for initial guess.
 HarFok:  IExCor=  402 AccDes= 0.00D+00 IRadAn=         1 IDoV= 1 UseB2=F ITyADJ=14
 ICtDFT=  3500011 ScaDFX=  1.000000  1.000000  1.000000  1.000000
 FoFCou: FMM=F IPFlag=           0 FMFlag=      100000 FMFlg1=           0
         NFxFlg=           0 DoJE=T BraDBF=F KetDBF=T FulRan=T
         wScrn=  0.000000 ICntrl=     500 IOpCl=  0 I1Cent=   200000004 NGrid=           0
         NMat0=    1 NMatS0=      1 NMatT0=    0 NMatD0=    1 NMtDS0=    0 NMtDT0=    0
 Petite list used in FoFCou.
 Harris En= -135.188833627630    
 JPrj=0 DoOrth=F DoCkMO=F.
 Leave Link  401 at Thu Mar 19 18:41:49 2026, MaxMem=   536870912 cpu:         0.0
 (Enter C:\G09W\l502.exe)
 Closed shell SCF:
 Using DIIS extrapolation, IDIIS=  1040.
 Integral symmetry usage will be decided dynamically.
 Keep R1 ints in memory in canonical form, NReq=2474769.
 IVT=       29806 IEndB=       29806 NGot=   536870912 MDV=   535273772
 LenX=   535273772 LenY=   535269850
 Requested convergence on RMS density matrix=1.00D-08 within 128 cycles.
 Requested convergence on MAX density matrix=1.00D-06.
 Requested convergence on             energy=1.00D-06.
 No special actions if energy rises.
 FoFCou: FMM=F IPFlag=           0 FMFlag=           0 FMFlg1=           0
         NFxFlg=           0 DoJE=F BraDBF=F KetDBF=F FulRan=T
         wScrn=  0.000000 ICntrl=     600 IOpCl=  0 I1Cent=           0 NGrid=           0
         NMat0=    1 NMatS0=   1770 NMatT0=    0 NMatD0=    1 NMtDS0=    0 NMtDT0=    0
 Symmetry not used in FoFCou.
 Integral accuracy reduced to 1.0D-05 until final iterations.

 Cycle   1  Pass 0  IDiag  1:
 E= -135.040744360317    
 DIIS: error= 4.95D-02 at cycle   1 NSaved=   1.
 NSaved= 1 IEnMin= 1 EnMin= -135.040744360317     IErMin= 1 ErrMin= 4.95D-02
 ErrMax= 4.95D-02  0.00D+00 EMaxC= 1.00D-01 BMatC= 1.12D-01 BMatP= 1.12D-01
 IDIUse=3 WtCom= 5.05D-01 WtEn= 4.95D-01
 Coeff-Com:  0.100D+01
 Coeff-En:   0.100D+01
 Coeff:      0.100D+01
 Gap=     0.238 Goal=   None    Shift=    0.000
 GapD=    0.238 DampG=1.000 DampE=0.500 DampFc=0.5000 IDamp=-1.
 Damping current iteration by 5.00D-01
 RMSDP=1.31D-02 MaxDP=1.50D-01              OVMax= 1.63D-01

 Cycle   2  Pass 0  IDiag  1:
 E= -135.093516621898     Delta-E=       -0.052772261581 Rises=F Damp=T
 DIIS: error= 8.61D-03 at cycle   2 NSaved=   2.
 NSaved= 2 IEnMin= 2 EnMin= -135.093516621898     IErMin= 2 ErrMin= 8.61D-03
 ErrMax= 8.61D-03  0.00D+00 EMaxC= 1.00D-01 BMatC= 5.83D-03 BMatP= 1.12D-01
 IDIUse=3 WtCom= 9.14D-01 WtEn= 8.61D-02
 Coeff-Com:  0.893D-01 0.911D+00
 Coeff-En:   0.136D+00 0.864D+00
 Coeff:      0.932D-01 0.907D+00
 Gap=     0.304 Goal=   None    Shift=    0.000
 RMSDP=2.08D-03 MaxDP=1.82D-02 DE=-5.28D-02 OVMax= 1.00D-01

 Cycle   3  Pass 0  IDiag  1:
 E= -135.160229081327     Delta-E=       -0.066712459429 Rises=F Damp=F
 DIIS: error= 4.13D-03 at cycle   3 NSaved=   3.
 NSaved= 3 IEnMin= 3 EnMin= -135.160229081327     IErMin= 3 ErrMin= 4.13D-03
 ErrMax= 4.13D-03  0.00D+00 EMaxC= 1.00D-01 BMatC= 1.38D-03 BMatP= 5.83D-03
 IDIUse=3 WtCom= 9.59D-01 WtEn= 4.13D-02
 Coeff-Com:  0.846D-02 0.287D+00 0.704D+00
 Coeff-En:   0.000D+00 0.000D+00 0.100D+01
 Coeff:      0.811D-02 0.275D+00 0.716D+00
 Gap=     0.295 Goal=   None    Shift=    0.000
 RMSDP=7.69D-04 MaxDP=1.17D-02 DE=-6.67D-02 OVMax= 1.18D-02

 Cycle   4  Pass 0  IDiag  1:
 E= -135.160962184502     Delta-E=       -0.000733103175 Rises=F Damp=F
 DIIS: error= 2.17D-03 at cycle   4 NSaved=   4.
 NSaved= 4 IEnMin= 4 EnMin= -135.160962184502     IErMin= 4 ErrMin= 2.17D-03
 ErrMax= 2.17D-03  0.00D+00 EMaxC= 1.00D-01 BMatC= 5.32D-04 BMatP= 1.38D-03
 IDIUse=3 WtCom= 9.78D-01 WtEn= 2.17D-02
 Coeff-Com: -0.141D-02 0.581D-01 0.390D+00 0.554D+00
 Coeff-En:   0.000D+00 0.000D+00 0.271D+00 0.729D+00
 Coeff:     -0.138D-02 0.569D-01 0.387D+00 0.558D+00
 Gap=     0.299 Goal=   None    Shift=    0.000
 RMSDP=3.09D-04 MaxDP=5.05D-03 DE=-7.33D-04 OVMax= 4.91D-03

 Cycle   5  Pass 0  IDiag  1:
 E= -135.161388961463     Delta-E=       -0.000426776961 Rises=F Damp=F
 DIIS: error= 5.24D-04 at cycle   5 NSaved=   5.
 NSaved= 5 IEnMin= 5 EnMin= -135.161388961463     IErMin= 5 ErrMin= 5.24D-04
 ErrMax= 5.24D-04  0.00D+00 EMaxC= 1.00D-01 BMatC= 1.01D-05 BMatP= 5.32D-04
 IDIUse=3 WtCom= 9.95D-01 WtEn= 5.24D-03
 Coeff-Com: -0.203D-03 0.139D-03 0.888D-01 0.195D+00 0.716D+00
 Coeff-En:   0.000D+00 0.000D+00 0.000D+00 0.000D+00 0.100D+01
 Coeff:     -0.202D-03 0.138D-03 0.884D-01 0.194D+00 0.717D+00
 Gap=     0.299 Goal=   None    Shift=    0.000
 RMSDP=4.64D-05 MaxDP=5.11D-04 DE=-4.27D-04 OVMax= 8.26D-04

 Cycle   6  Pass 0  IDiag  1:
 E= -135.161397462422     Delta-E=       -0.000008500959 Rises=F Damp=F
 DIIS: error= 2.93D-05 at cycle   6 NSaved=   6.
 NSaved= 6 IEnMin= 6 EnMin= -135.161397462422     IErMin= 6 ErrMin= 2.93D-05
 ErrMax= 2.93D-05  0.00D+00 EMaxC= 1.00D-01 BMatC= 5.23D-08 BMatP= 1.01D-05
 IDIUse=1 WtCom= 1.00D+00 WtEn= 0.00D+00
 Coeff-Com:  0.858D-04-0.764D-03 0.177D-01 0.414D-01 0.179D+00 0.762D+00
 Coeff:      0.858D-04-0.764D-03 0.177D-01 0.414D-01 0.179D+00 0.762D+00
 Gap=     0.299 Goal=   None    Shift=    0.000
 RMSDP=7.07D-06 MaxDP=5.41D-05 DE=-8.50D-06 OVMax= 9.72D-05

 Initial convergence to 1.0D-05 achieved.  Increase integral accuracy.
 Cycle   7  Pass 1  IDiag  1:
 E= -135.161376315199     Delta-E=        0.000021147223 Rises=F Damp=F
 DIIS: error= 9.58D-06 at cycle   1 NSaved=   1.
 NSaved= 1 IEnMin= 1 EnMin= -135.161376315199     IErMin= 1 ErrMin= 9.58D-06
 ErrMax= 9.58D-06  0.00D+00 EMaxC= 1.00D-01 BMatC= 1.03D-08 BMatP= 1.03D-08
 IDIUse=1 WtCom= 1.00D+00 WtEn= 0.00D+00
 Coeff-Com:  0.100D+01
 Coeff:      0.100D+01
 Gap=     0.299 Goal=   None    Shift=    0.000
 RMSDP=7.07D-06 MaxDP=5.41D-05 DE= 2.11D-05 OVMax= 3.95D-05

 Cycle   8  Pass 1  IDiag  1:
 E= -135.161376329087     Delta-E=       -0.000000013888 Rises=F Damp=F
 DIIS: error= 3.23D-06 at cycle   2 NSaved=   2.
 NSaved= 2 IEnMin= 2 EnMin= -135.161376329087     IErMin= 2 ErrMin= 3.23D-06
 ErrMax= 3.23D-06  0.00D+00 EMaxC= 1.00D-01 BMatC= 6.37D-10 BMatP= 1.03D-08
 IDIUse=1 WtCom= 1.00D+00 WtEn= 0.00D+00
 Coeff-Com:  0.764D-01 0.924D+00
 Coeff:      0.764D-01 0.924D+00
 Gap=     0.299 Goal=   None    Shift=    0.000
 RMSDP=8.03D-07 MaxDP=6.87D-06 DE=-1.39D-08 OVMax= 1.33D-05

 Cycle   9  Pass 1  IDiag  1:
 E= -135.161376329359     Delta-E=       -0.000000000272 Rises=F Damp=F
 DIIS: error= 2.93D-06 at cycle   3 NSaved=   3.
 NSaved= 3 IEnMin= 3 EnMin= -135.161376329359     IErMin= 3 ErrMin= 2.93D-06
 ErrMax= 2.93D-06  0.00D+00 EMaxC= 1.00D-01 BMatC= 4.15D-10 BMatP= 6.37D-10
 IDIUse=1 WtCom= 1.00D+00 WtEn= 0.00D+00
 Coeff-Com: -0.151D-01 0.444D+00 0.571D+00
 Coeff:     -0.151D-01 0.444D+00 0.571D+00
 Gap=     0.299 Goal=   None    Shift=    0.000
 RMSDP=3.44D-07 MaxDP=3.66D-06 DE=-2.72D-10 OVMax= 6.28D-06

 Cycle  10  Pass 1  IDiag  1:
 E= -135.161376329766     Delta-E=       -0.000000000407 Rises=F Damp=F
 DIIS: error= 4.21D-07 at cycle   4 NSaved=   4.
 NSaved= 4 IEnMin= 4 EnMin= -135.161376329766     IErMin= 4 ErrMin= 4.21D-07
 ErrMax= 4.21D-07  0.00D+00 EMaxC= 1.00D-01 BMatC= 1.02D-11 BMatP= 4.15D-10
 IDIUse=1 WtCom= 1.00D+00 WtEn= 0.00D+00
 Coeff-Com: -0.921D-02 0.120D+00 0.215D+00 0.674D+00
 Coeff:     -0.921D-02 0.120D+00 0.215D+00 0.674D+00
 Gap=     0.299 Goal=   None    Shift=    0.000
 RMSDP=5.92D-08 MaxDP=6.89D-07 DE=-4.07D-10 OVMax= 1.01D-06

 Cycle  11  Pass 1  IDiag  1:
 E= -135.161376329773     Delta-E=       -0.000000000007 Rises=F Damp=F
 DIIS: error= 3.38D-08 at cycle   5 NSaved=   5.
 NSaved= 5 IEnMin= 5 EnMin= -135.161376329773     IErMin= 5 ErrMin= 3.38D-08
 ErrMax= 3.38D-08  0.00D+00 EMaxC= 1.00D-01 BMatC= 8.94D-14 BMatP= 1.02D-11
 IDIUse=1 WtCom= 1.00D+00 WtEn= 0.00D+00
 Coeff-Com: -0.142D-02 0.131D-01 0.291D-01 0.133D+00 0.826D+00
 Coeff:     -0.142D-02 0.131D-01 0.291D-01 0.133D+00 0.826D+00
 Gap=     0.299 Goal=   None    Shift=    0.000
 RMSDP=9.79D-09 MaxDP=1.12D-07 DE=-6.65D-12 OVMax= 1.82D-07

 SCF Done:  E(RB3LYP) =  -135.161376330     A.U. after   11 cycles
            NFock= 11  Conv=0.98D-08     -V/T= 2.0096
 KE= 1.338695425866D+02 PE=-4.817419288321D+02 EE= 1.284248854428D+02
 Leave Link  502 at Thu Mar 19 18:41:52 2026, MaxMem=   536870912 cpu:         3.0
 (Enter C:\G09W\l601.exe)
 Copying SCF densities to generalized density rwf, IOpCl= 0 IROHF=0.

 **********************************************************************

            Population analysis using the SCF density.

 **********************************************************************

 Orbital symmetries:
       Occupied  (A) (A) (A) (A) (A) (A) (A) (A) (A) (A) (A) (A)
                 (A)
       Virtual   (A) (A) (A) (A) (A) (A) (A) (A) (A) (A) (A) (A)
                 (A) (A) (A) (A) (A) (A) (A) (A) (A) (A) (A) (A)
                 (A) (A) (A) (A) (A) (A) (A) (A) (A) (A) (A) (A)
                 (A) (A) (A) (A) (A) (A) (A) (A) (A) (A)
 The electronic state is 1-A.
 Alpha  occ. eigenvalues --  -14.31144 -10.19517 -10.19516  -0.89244  -0.69453
 Alpha  occ. eigenvalues --   -0.62358  -0.48294  -0.43928  -0.42751  -0.38611
 Alpha  occ. eigenvalues --   -0.36456  -0.35479  -0.21266
 Alpha virt. eigenvalues --    0.08588   0.13307   0.15387   0.15563   0.17121
 Alpha virt. eigenvalues --    0.19373   0.19648   0.21256   0.26514   0.52771
 Alpha virt. eigenvalues --    0.53192   0.57312   0.58650   0.59972   0.72684
 Alpha virt. eigenvalues --    0.75569   0.81814   0.82850   0.85935   0.90523
 Alpha virt. eigenvalues --    0.92135   0.92724   0.95554   0.98160   0.98496
 Alpha virt. eigenvalues --    1.04403   1.36148   1.40616   1.47382   1.51412
 Alpha virt. eigenvalues --    1.82626   1.89183   2.00893   2.04890   2.05480
 Alpha virt. eigenvalues --    2.13760   2.22120   2.24600   2.32334   2.44104
 Alpha virt. eigenvalues --    2.50377   2.62135   2.75932   3.88057   4.23556
 Alpha virt. eigenvalues --    4.29517
          Condensed to atoms (all electrons):
               1          2          3          4          5          6
     1  C    4.953665   0.334751  -0.066336   0.383050   0.362042   0.380003
     2  N    0.334751   6.799091   0.334751  -0.037969  -0.056613  -0.035099
     3  C   -0.066336   0.334751   4.953665  -0.004662  -0.005098   0.006099
     4  H    0.383050  -0.037969  -0.004662   0.568160  -0.044903  -0.026614
     5  H    0.362042  -0.056613  -0.005098  -0.044903   0.660489  -0.041102
     6  H    0.380003  -0.035099   0.006099  -0.026614  -0.041102   0.572848
     7  H   -0.042162   0.315485  -0.042162   0.006146  -0.005564  -0.002617
     8  H   -0.005098  -0.056613   0.362042  -0.001919   0.014874  -0.000320
     9  H   -0.004662  -0.037969   0.383050   0.006937  -0.001919   0.000113
    10  H    0.006099  -0.035099   0.380003   0.000113  -0.000320  -0.000255
               7          8          9         10
     1  C   -0.042162  -0.005098  -0.004662   0.006099
     2  N    0.315485  -0.056613  -0.037969  -0.035099
     3  C   -0.042162   0.362042   0.383050   0.380003
     4  H    0.006146  -0.001919   0.006937   0.000113
     5  H   -0.005564   0.014874  -0.001919  -0.000320
     6  H   -0.002617  -0.000320   0.000113  -0.000255
     7  H    0.478930  -0.005564   0.006146  -0.002617
     8  H   -0.005564   0.660488  -0.044903  -0.041102
     9  H    0.006146  -0.044903   0.568159  -0.026613
    10  H   -0.002617  -0.041102  -0.026613   0.572848
 Mulliken charges:
               1
     1  C   -0.301352
     2  N   -0.524715
     3  C   -0.301352
     4  H    0.151661
     5  H    0.118115
     6  H    0.146944
     7  H    0.293979
     8  H    0.118115
     9  H    0.151661
    10  H    0.146944
 Sum of Mulliken charges =   0.00000
 Mulliken charges with hydrogens summed into heavy atoms:
               1
     1  C    0.115368
     2  N   -0.230736
     3  C    0.115368
 Electronic spatial extent (au):  <R**2>=            202.3843
 Charge=              0.0000 electrons
 Dipole moment (field-independent basis, Debye):
    X=              0.0000    Y=             -0.2150    Z=              1.0555  Tot=              1.0772
 Quadrupole moment (field-independent basis, Debye-Ang):
   XX=            -19.6445   YY=            -20.1496   ZZ=            -21.5130
   XY=              0.0000   XZ=              0.0000   YZ=              2.1623
 Traceless Quadrupole moment (field-independent basis, Debye-Ang):
   XX=              0.7912   YY=              0.2861   ZZ=             -1.0773
   XY=              0.0000   XZ=              0.0000   YZ=              2.1623
 Octapole moment (field-independent basis, Debye-Ang**2):
  XXX=              0.0000  YYY=              2.8681  ZZZ=              0.9873  XYY=              0.0000
  XXY=              1.6202  XXZ=             -0.9747  XZZ=              0.0000  YZZ=             -0.4524
  YYZ=              1.3351  XYZ=              0.0000
 Hexadecapole moment (field-independent basis, Debye-Ang**3):
 XXXX=           -174.4977 YYYY=            -54.0790 ZZZZ=            -37.9775 XXXY=              0.0000
 XXXZ=              0.0000 YYYX=              0.0000 YYYZ=              4.6298 ZZZX=              0.0000
 ZZZY=              2.1992 XXYY=            -38.1405 XXZZ=            -36.6862 YYZZ=            -15.2636
 XXYZ=              0.6154 YYXZ=              0.0000 ZZXY=              0.0000
 N-N= 8.428612447285D+01 E-N=-4.817419292811D+02  KE= 1.338695425866D+02
 No NMR shielding tensors so no spin-rotation constants.
 Leave Link  601 at Thu Mar 19 18:41:52 2026, MaxMem=   536870912 cpu:         0.0
 (Enter C:\G09W\l701.exe)
 Compute integral first derivatives.
 ... and contract with generalized density number  0.
 Leave Link  701 at Thu Mar 19 18:41:52 2026, MaxMem=   536870912 cpu:         0.0
 (Enter C:\G09W\l702.exe)
 L702 exits ... SP integral derivatives will be done elsewhere.
 Leave Link  702 at Thu Mar 19 18:41:52 2026, MaxMem=   536870912 cpu:         0.0
 (Enter C:\G09W\l703.exe)
 Compute integral first derivatives, UseDBF=F ICtDFT=           0.
 Integral derivatives from FoFJK, PRISM(SPDF).
 Calling FoFJK, ICntrl=      2127 FMM=F ISym2X=0 I1Cent= 0 IOpClX= 0 NMat=1 NMatS=1 NMatT=0.
 FoFJK:  IHMeth= 1 ICntrl=    2127 DoSepK=F KAlg= 0 I1Cent=   0 FoldK=F
 IRaf=         0 NMat=   1 IRICut=       1 DoRegI=T DoRafI=F ISym2E= 0.
 FoFCou: FMM=F IPFlag=           0 FMFlag=      100000 FMFlg1=         800
         NFxFlg=           0 DoJE=F BraDBF=F KetDBF=F FulRan=T
         wScrn=  0.000000 ICntrl=    2127 IOpCl=  0 I1Cent=           0 NGrid=           0
         NMat0=    1 NMatS0=      1 NMatT0=    0 NMatD0=    1 NMtDS0=    0 NMtDT0=    0
 Symmetry not used in FoFCou.
 Leave Link  703 at Thu Mar 19 18:41:53 2026, MaxMem=   536870912 cpu:         0.0
 (Enter C:\G09W\l716.exe)
 Dipole        = 3.68133493D-08-8.45880592D-02 4.15260818D-01
 ***** Axes restored to original set *****
 -------------------------------------------------------------------
 Center     Atomic                   Forces (Hartrees/Bohr)
 Number     Number              X              Y              Z
 -------------------------------------------------------------------
      1        6          -0.000273611   -0.009735489    0.003572147
      2        7          -0.002333013    0.001906263   -0.011910636
      3        6           0.003922814   -0.009175124    0.002840371
      4        1           0.002586774    0.000325901   -0.000803078
      5        1          -0.004130818    0.007749665    0.004793763
      6        1          -0.001268946   -0.000498010   -0.000007189
      7        1          -0.000447923    0.001211611   -0.001638624
      8        1           0.003367162    0.008753143    0.003486230
      9        1          -0.002698789   -0.000380831    0.000118336
     10        1           0.001276350   -0.000157129   -0.000451320
 -------------------------------------------------------------------
 Cartesian Forces:  Max     0.011910636 RMS     0.004432301
 Leave Link  716 at Thu Mar 19 18:41:54 2026, MaxMem=   536870912 cpu:         1.0
 (Enter C:\G09W\l103.exe)

 GradGradGradGradGradGradGradGradGradGradGradGradGradGradGradGradGradGrad
 Berny optimization.
 FormGI is forming the generalized inverse of G from B-inverse, IUseBI=4.
 Internal  Forces:  Max     0.009081273 RMS     0.003766761
 Search for a local minimum.
 Step number   1 out of a maximum of   46
 All quantities printed in internal units (Hartrees-Bohrs-Radians)
 RMS Force = .37668D-02 SwitMx=.10000D-02 MixMth= 1
 Mixed Optimization -- RFO/linear search
 Second derivative matrix not updated -- first step.
 ITU=  0
     Eigenvalues ---    0.00943   0.00943   0.03076   0.07231   0.07231
     Eigenvalues ---    0.07543   0.07543   0.10798   0.16000   0.16000
     Eigenvalues ---    0.16000   0.16000   0.16000   0.16000   0.23447
     Eigenvalues ---    0.34249   0.34249   0.34258   0.34258   0.34307
     Eigenvalues ---    0.34307   0.37392   0.37392   0.44397
 RFO step:  Lambda=-3.07529050D-03 EMin= 9.42971592D-03
 Linear search not attempted -- first point.
 Iteration  1 RMS(Cart)=  0.03405050 RMS(Int)=  0.00096342
 Iteration  2 RMS(Cart)=  0.00151164 RMS(Int)=  0.00047608
 Iteration  3 RMS(Cart)=  0.00000223 RMS(Int)=  0.00047607
 Iteration  4 RMS(Cart)=  0.00000000 RMS(Int)=  0.00047607
 ITry= 1 IFail=0 DXMaxC= 9.96D-02 DCOld= 1.00D+10 DXMaxT= 3.00D-01 DXLimC= 3.00D+00 Rises=F
 Variable       Old X    -DE/DX   Delta X   Delta X   Delta X     New X
                                 (Linear)    (Quad)   (Total)
    R1        2.75259   0.00329   0.00000   0.00874   0.00874   2.76133
    R2        2.06897   0.00013   0.00000   0.00037   0.00037   2.06934
    R3        2.06911   0.00777   0.00000   0.02248   0.02248   2.09159
    R4        2.06815   0.00126   0.00000   0.00365   0.00365   2.07179
    R5        2.75259   0.00329   0.00000   0.00874   0.00874   2.76133
    R6        1.92682  -0.00207   0.00000  -0.00464  -0.00464   1.92218
    R7        2.06911   0.00777   0.00000   0.02248   0.02248   2.09159
    R8        2.06897   0.00013   0.00000   0.00037   0.00037   2.06934
    R9        2.06815   0.00126   0.00000   0.00364   0.00364   2.07179
    A1        1.94081  -0.00618   0.00000  -0.04619  -0.04591   1.89490
    A2        1.94647   0.00908   0.00000   0.05963   0.05933   2.00580
    A3        1.91036   0.00061   0.00000   0.00803   0.00725   1.91761
    A4        1.90432  -0.00297   0.00000  -0.02586  -0.02521   1.87911
    A5        1.87615   0.00118   0.00000  -0.00094  -0.00115   1.87500
    A6        1.88352  -0.00188   0.00000   0.00461   0.00345   1.88697
    A7        1.93637   0.00702   0.00000   0.02831   0.02837   1.96474
    A8        1.90608  -0.00234   0.00000  -0.01308  -0.01298   1.89309
    A9        1.90608  -0.00234   0.00000  -0.01308  -0.01298   1.89309
   A10        1.94647   0.00908   0.00000   0.05963   0.05933   2.00580
   A11        1.94081  -0.00618   0.00000  -0.04619  -0.04591   1.89490
   A12        1.91036   0.00061   0.00000   0.00803   0.00725   1.91761
   A13        1.90432  -0.00297   0.00000  -0.02586  -0.02521   1.87911
   A14        1.88352  -0.00188   0.00000   0.00461   0.00345   1.88697
   A15        1.87615   0.00118   0.00000  -0.00094  -0.00115   1.87500
    D1        1.06639   0.00055   0.00000   0.04269   0.04236   1.10876
    D2       -3.11491   0.00054   0.00000   0.03576   0.03540  -3.07951
    D3       -1.06352   0.00234   0.00000   0.06662   0.06733  -0.99619
    D4        1.03836   0.00233   0.00000   0.05969   0.06037   1.09873
    D5        3.13670  -0.00141   0.00000   0.01827   0.01793  -3.12855
    D6       -1.04460  -0.00142   0.00000   0.01134   0.01097  -1.03363
    D7        1.06352  -0.00234   0.00000  -0.06662  -0.06733   0.99619
    D8       -1.06640  -0.00055   0.00000  -0.04269  -0.04236  -1.10876
    D9       -3.13671   0.00141   0.00000  -0.01826  -0.01793   3.12855
   D10       -1.03836  -0.00233   0.00000  -0.05969  -0.06037  -1.09873
   D11        3.11491  -0.00054   0.00000  -0.03576  -0.03540   3.07951
   D12        1.04460   0.00142   0.00000  -0.01134  -0.01097   1.03363
         Item               Value     Threshold  Converged?
 Maximum Force            0.009081     0.000450     NO 
 RMS     Force            0.003767     0.000300     NO 
 Maximum Displacement     0.099633     0.001800     NO 
 RMS     Displacement     0.034760     0.001200     NO 
 Predicted change in Energy=-1.612043D-03
 Lowest energy point so far.  Saving SCF results.
 GradGradGradGradGradGradGradGradGradGradGradGradGradGradGradGradGradGrad

 Leave Link  103 at Thu Mar 19 18:41:54 2026, MaxMem=   536870912 cpu:         0.0
 (Enter C:\G09W\l202.exe)
                          Input orientation:                          
 ---------------------------------------------------------------------
 Center     Atomic      Atomic             Coordinates (Angstroms)
 Number     Number       Type             X           Y           Z
 ---------------------------------------------------------------------
      1          6           0       -1.209538   -0.058361    0.155667
      2          7           0        0.060257   -0.694807   -0.187486
      3          6           0        1.164708    0.259310   -0.258521
      4          1           0       -1.476569    0.640612   -0.643868
      5          1           0       -1.206142    0.505914    1.107842
      6          1           0       -2.002315   -0.813703    0.209871
      7          1           0        0.277283   -1.386323    0.526198
      8          1           0        1.334486    0.845846    0.664627
      9          1           0        0.962599    0.966969   -1.069383
     10          1           0        2.095229   -0.265458   -0.504947
 ---------------------------------------------------------------------
                    Distance matrix (angstroms):
                    1          2          3          4          5
     1  C    0.000000
     2  N    1.461231   0.000000
     3  C    2.430949   1.461231   0.000000
     4  H    1.095046   2.086495   2.696336   0.000000
     5  H    1.106821   2.173332   2.747489   1.777572   0.000000
     6  H    1.096346   2.103861   3.376505   1.766440   1.783712
     7  H    2.027662   1.017172   2.027662   2.924640   2.473746
     8  H    2.747489   2.173331   1.106821   3.107461   2.601305
     9  H    2.696337   2.086495   1.095046   2.497422   3.107462
    10  H    3.376505   2.103861   1.096346   3.687547   3.754351
                    6          7          8          9         10
     6  H    0.000000
     7  H    2.371608   0.000000
     8  H    3.754351   2.473746   0.000000
     9  H    3.687547   2.924640   1.777572   0.000000
    10  H    4.195402   2.371608   1.783712   1.766440   0.000000
 Stoichiometry    C2H7N
 Framework group  C1[X(C2H7N)]
 Deg. of freedom    24
 Full point group                 C1      NOp   1
 RotChk:  IX=0 Diff= 8.34D-02
 Largest Abelian subgroup         C1      NOp   1
 Largest concise Abelian subgroup C1      NOp   1
                         Standard orientation:                         
 ---------------------------------------------------------------------
 Center     Atomic      Atomic             Coordinates (Angstroms)
 Number     Number       Type             X           Y           Z
 ---------------------------------------------------------------------
      1          6           0        1.215475   -0.223180    0.021278
      2          7           0        0.000000    0.569463   -0.150582
      3          6           0       -1.215475   -0.223180    0.021278
      4          1           0        1.248711   -0.985403   -0.764238
      5          1           0        1.300653   -0.741146    0.995706
      6          1           0        2.097701    0.415638   -0.103473
      7          1           0        0.000000    1.313737    0.542741
      8          1           0       -1.300652   -0.741147    0.995706
      9          1           0       -1.248711   -0.985403   -0.764239
     10          1           0       -2.097701    0.415638   -0.103472
 ---------------------------------------------------------------------
 Rotational constants (GHZ):     34.4744088      9.2505742      8.1794634
 Leave Link  202 at Thu Mar 19 18:41:54 2026, MaxMem=   536870912 cpu:         0.0
 (Enter C:\G09W\l301.exe)
 Standard basis: 6-31G(d) (6D, 7F)
 Ernie: Thresh=  0.10000D-02 Tol=  0.10000D-05 Strict=F.
 There are    59 symmetry adapted cartesian basis functions of A   symmetry.
 There are    59 symmetry adapted basis functions of A   symmetry.
    59 basis functions,   112 primitive gaussians,    59 cartesian basis functions
    13 alpha electrons       13 beta electrons
       nuclear repulsion energy        83.8611992829 Hartrees.
 IExCor=  402 DFT=T Ex+Corr=B3LYP ExCW=0 ScaHFX=  0.200000
 ScaDFX=  0.800000  0.720000  1.000000  0.810000 ScalE2=  1.000000  1.000000
 IRadAn=      0 IRanWt=     -1 IRanGd=            0 ICorTp=0 IEmpDi=  4
 NAtoms=   10 NActive=   10 NUniq=   10 SFac= 1.00D+00 NAtFMM=   60 NAOKFM=F Big=F
 Integral buffers will be    131072 words long.
 Raffenetti 2 integral format.
 Two-electron integral symmetry is turned on.
 Leave Link  301 at Thu Mar 19 18:41:54 2026, MaxMem=   536870912 cpu:         0.0
 (Enter C:\G09W\l302.exe)
 NPDir=0 NMtPBC=     1 NCelOv=     1 NCel=       1 NClECP=     1 NCelD=      1
         NCelK=      1 NCelE2=     1 NClLst=     1 CellRange=     0.0.
 One-electron integrals computed using PRISM.
 NBasis=    59 RedAO= T EigKep=  7.67D-03  NBF=    59
 NBsUse=    59 1.00D-06 EigRej= -1.00D+00 NBFU=    59
 Precomputing XC quadrature grid using
 IXCGrd= 4 IRadAn=           0 IRanWt=          -1 IRanGd=           0 AccXCQ= 0.00D+00.
 Generated NRdTot=       0 NPtTot=           0 NUsed=           0 NTot=          32
 NSgBfM=    59    59    59    59    59 MxSgAt=    10 MxSgA2=    10.
 Leave Link  302 at Thu Mar 19 18:41:54 2026, MaxMem=   536870912 cpu:         0.0
 (Enter C:\G09W\l303.exe)
 DipDrv:  MaxL=1.
 Leave Link  303 at Thu Mar 19 18:41:54 2026, MaxMem=   536870912 cpu:         0.0
 (Enter C:\G09W\l401.exe)
 Initial guess from the checkpoint file:  "dimethylamine_rdkit.chk"
 B after Tr=     0.000000    0.000000    0.000000
         Rot=    0.999692   -0.024813    0.000000    0.000000 Ang=  -2.84 deg.
 Guess basis will be translated and rotated to current coordinates.
 JPrj=2 DoOrth=T DoCkMO=T.
 Generating alternative initial guess.
 ExpMin= 1.61D-01 ExpMax= 4.17D+03 ExpMxC= 6.27D+02 IAcc=1 IRadAn=         1 AccDes= 0.00D+00
 Harris functional with IExCor=  402 and IRadAn=       1 diagonalized for initial guess.
 HarFok:  IExCor=  402 AccDes= 0.00D+00 IRadAn=         1 IDoV= 1 UseB2=F ITyADJ=14
 ICtDFT=  3500011 ScaDFX=  1.000000  1.000000  1.000000  1.000000
 FoFCou: FMM=F IPFlag=           0 FMFlag=      100000 FMFlg1=           0
         NFxFlg=           0 DoJE=T BraDBF=F KetDBF=T FulRan=T
         wScrn=  0.000000 ICntrl=     500 IOpCl=  0 I1Cent=   200000004 NGrid=           0
         NMat0=    1 NMatS0=      1 NMatT0=    0 NMatD0=    1 NMtDS0=    0 NMtDT0=    0
 Petite list used in FoFCou.
 Harris En= -135.187637832940    
 Leave Link  401 at Thu Mar 19 18:41:55 2026, MaxMem=   536870912 cpu:         0.0
 (Enter C:\G09W\l502.exe)
 Closed shell SCF:
 Using DIIS extrapolation, IDIIS=  1040.
 Integral symmetry usage will be decided dynamically.
 Keep R1 ints in memory in canonical form, NReq=2474769.
 IVT=       29806 IEndB=       29806 NGot=   536870912 MDV=   535273772
 LenX=   535273772 LenY=   535269850
 Requested convergence on RMS density matrix=1.00D-08 within 128 cycles.
 Requested convergence on MAX density matrix=1.00D-06.
 Requested convergence on             energy=1.00D-06.
 No special actions if energy rises.
 FoFCou: FMM=F IPFlag=           0 FMFlag=           0 FMFlg1=           0
         NFxFlg=           0 DoJE=F BraDBF=F KetDBF=F FulRan=T
         wScrn=  0.000000 ICntrl=     600 IOpCl=  0 I1Cent=           0 NGrid=           0
         NMat0=    1 NMatS0=   1770 NMatT0=    0 NMatD0=    1 NMtDS0=    0 NMtDT0=    0
 Symmetry not used in FoFCou.
 Integral accuracy reduced to 1.0D-05 until final iterations.

 Cycle   1  Pass 0  IDiag  1:
 E= -135.161960429159    
 DIIS: error= 1.82D-03 at cycle   1 NSaved=   1.
 NSaved= 1 IEnMin= 1 EnMin= -135.161960429159     IErMin= 1 ErrMin= 1.82D-03
 ErrMax= 1.82D-03  0.00D+00 EMaxC= 1.00D-01 BMatC= 4.67D-04 BMatP= 4.67D-04
 IDIUse=3 WtCom= 9.82D-01 WtEn= 1.82D-02
 Coeff-Com:  0.100D+01
 Coeff-En:   0.100D+01
 Coeff:      0.100D+01
 Gap=     1.631 Goal=   None    Shift=    0.000
 GapD=    1.631 DampG=2.000 DampE=1.000 DampFc=2.0000 IDamp=-1.
 RMSDP=6.32D-04 MaxDP=5.53D-03              OVMax= 1.09D-02

 Cycle   2  Pass 0  IDiag  1:
 E= -135.162714326152     Delta-E=       -0.000753896993 Rises=F Damp=F
 DIIS: error= 6.40D-04 at cycle   2 NSaved=   2.
 NSaved= 2 IEnMin= 2 EnMin= -135.162714326152     IErMin= 2 ErrMin= 6.40D-04
 ErrMax= 6.40D-04  0.00D+00 EMaxC= 1.00D-01 BMatC= 2.98D-05 BMatP= 4.67D-04
 IDIUse=3 WtCom= 9.94D-01 WtEn= 6.40D-03
 Coeff-Com:  0.729D-01 0.927D+00
 Coeff-En:   0.000D+00 0.100D+01
 Coeff:      0.724D-01 0.928D+00
 Gap=     0.303 Goal=   None    Shift=    0.000
 RMSDP=1.53D-04 MaxDP=1.41D-03 DE=-7.54D-04 OVMax= 2.30D-03

 Cycle   3  Pass 0  IDiag  1:
 E= -135.162725679298     Delta-E=       -0.000011353146 Rises=F Damp=F
 DIIS: error= 6.08D-04 at cycle   3 NSaved=   3.
 NSaved= 3 IEnMin= 3 EnMin= -135.162725679298     IErMin= 3 ErrMin= 6.08D-04
 ErrMax= 6.08D-04  0.00D+00 EMaxC= 1.00D-01 BMatC= 2.34D-05 BMatP= 2.98D-05
 IDIUse=3 WtCom= 9.94D-01 WtEn= 6.08D-03
 Coeff-Com: -0.239D-01 0.470D+00 0.554D+00
 Coeff-En:   0.000D+00 0.375D+00 0.625D+00
 Coeff:     -0.238D-01 0.469D+00 0.555D+00
 Gap=     0.304 Goal=   None    Shift=    0.000
 RMSDP=6.91D-05 MaxDP=8.82D-04 DE=-1.14D-05 OVMax= 1.14D-03

 Cycle   4  Pass 0  IDiag  1:
 E= -135.162746055798     Delta-E=       -0.000020376499 Rises=F Damp=F
 DIIS: error= 8.71D-05 at cycle   4 NSaved=   4.
 NSaved= 4 IEnMin= 4 EnMin= -135.162746055798     IErMin= 4 ErrMin= 8.71D-05
 ErrMax= 8.71D-05  0.00D+00 EMaxC= 1.00D-01 BMatC= 9.60D-07 BMatP= 2.34D-05
 IDIUse=1 WtCom= 1.00D+00 WtEn= 0.00D+00
 Coeff-Com: -0.147D-01 0.157D+00 0.248D+00 0.610D+00
 Coeff:     -0.147D-01 0.157D+00 0.248D+00 0.610D+00
 Gap=     0.304 Goal=   None    Shift=    0.000
 RMSDP=1.71D-05 MaxDP=2.33D-04 DE=-2.04D-05 OVMax= 2.94D-04

 Cycle   5  Pass 0  IDiag  1:
 E= -135.162746831830     Delta-E=       -0.000000776032 Rises=F Damp=F
 DIIS: error= 2.47D-05 at cycle   5 NSaved=   5.
 NSaved= 5 IEnMin= 5 EnMin= -135.162746831830     IErMin= 5 ErrMin= 2.47D-05
 ErrMax= 2.47D-05  0.00D+00 EMaxC= 1.00D-01 BMatC= 5.65D-08 BMatP= 9.60D-07
 IDIUse=1 WtCom= 1.00D+00 WtEn= 0.00D+00
 Coeff-Com: -0.519D-02 0.426D-01 0.780D-01 0.274D+00 0.610D+00
 Coeff:     -0.519D-02 0.426D-01 0.780D-01 0.274D+00 0.610D+00
 Gap=     0.304 Goal=   None    Shift=    0.000
 RMSDP=4.88D-06 MaxDP=6.76D-05 DE=-7.76D-07 OVMax= 7.68D-05

 Initial convergence to 1.0D-05 achieved.  Increase integral accuracy.
 Cycle   6  Pass 1  IDiag  1:
 E= -135.162720341812     Delta-E=        0.000026490018 Rises=F Damp=F
 DIIS: error= 1.23D-05 at cycle   1 NSaved=   1.
 NSaved= 1 IEnMin= 1 EnMin= -135.162720341812     IErMin= 1 ErrMin= 1.23D-05
 ErrMax= 1.23D-05  0.00D+00 EMaxC= 1.00D-01 BMatC= 1.20D-08 BMatP= 1.20D-08
 IDIUse=1 WtCom= 1.00D+00 WtEn= 0.00D+00
 Coeff-Com:  0.100D+01
 Coeff:      0.100D+01
 Gap=     0.304 Goal=   None    Shift=    0.000
 RMSDP=4.88D-06 MaxDP=6.76D-05 DE= 2.65D-05 OVMax= 5.95D-05

 Cycle   7  Pass 1  IDiag  1:
 E= -135.162720351868     Delta-E=       -0.000000010056 Rises=F Damp=F
 DIIS: error= 8.28D-06 at cycle   2 NSaved=   2.
 NSaved= 2 IEnMin= 2 EnMin= -135.162720351868     IErMin= 2 ErrMin= 8.28D-06
 ErrMax= 8.28D-06  0.00D+00 EMaxC= 1.00D-01 BMatC= 5.81D-09 BMatP= 1.20D-08
 IDIUse=1 WtCom= 1.00D+00 WtEn= 0.00D+00
 Coeff-Com:  0.379D+00 0.621D+00
 Coeff:      0.379D+00 0.621D+00
 Gap=     0.304 Goal=   None    Shift=    0.000
 RMSDP=1.88D-06 MaxDP=2.36D-05 DE=-1.01D-08 OVMax= 2.90D-05

 Cycle   8  Pass 1  IDiag  1:
 E= -135.162720356458     Delta-E=       -0.000000004590 Rises=F Damp=F
 DIIS: error= 3.54D-06 at cycle   3 NSaved=   3.
 NSaved= 3 IEnMin= 3 EnMin= -135.162720356458     IErMin= 3 ErrMin= 3.54D-06
 ErrMax= 3.54D-06  0.00D+00 EMaxC= 1.00D-01 BMatC= 1.18D-09 BMatP= 5.81D-09
 IDIUse=1 WtCom= 1.00D+00 WtEn= 0.00D+00
 Coeff-Com:  0.337D-02 0.305D+00 0.691D+00
 Coeff:      0.337D-02 0.305D+00 0.691D+00
 Gap=     0.304 Goal=   None    Shift=    0.000
 RMSDP=5.85D-07 MaxDP=9.28D-06 DE=-4.59D-09 OVMax= 1.00D-05

 Cycle   9  Pass 1  IDiag  1:
 E= -135.162720357475     Delta-E=       -0.000000001017 Rises=F Damp=F
 DIIS: error= 7.19D-07 at cycle   4 NSaved=   4.
 NSaved= 4 IEnMin= 4 EnMin= -135.162720357475     IErMin= 4 ErrMin= 7.19D-07
 ErrMax= 7.19D-07  0.00D+00 EMaxC= 1.00D-01 BMatC= 6.55D-11 BMatP= 1.18D-09
 IDIUse=1 WtCom= 1.00D+00 WtEn= 0.00D+00
 Coeff-Com: -0.134D-01 0.131D+00 0.344D+00 0.539D+00
 Coeff:     -0.134D-01 0.131D+00 0.344D+00 0.539D+00
 Gap=     0.304 Goal=   None    Shift=    0.000
 RMSDP=1.14D-07 MaxDP=1.66D-06 DE=-1.02D-09 OVMax= 1.86D-06

 Cycle  10  Pass 1  IDiag  1:
 E= -135.162720357528     Delta-E=       -0.000000000053 Rises=F Damp=F
 DIIS: error= 1.92D-07 at cycle   5 NSaved=   5.
 NSaved= 5 IEnMin= 5 EnMin= -135.162720357528     IErMin= 5 ErrMin= 1.92D-07
 ErrMax= 1.92D-07  0.00D+00 EMaxC= 1.00D-01 BMatC= 2.43D-12 BMatP= 6.55D-11
 IDIUse=1 WtCom= 1.00D+00 WtEn= 0.00D+00
 Coeff-Com: -0.594D-02 0.439D-01 0.119D+00 0.240D+00 0.603D+00
 Coeff:     -0.594D-02 0.439D-01 0.119D+00 0.240D+00 0.603D+00
 Gap=     0.304 Goal=   None    Shift=    0.000
 RMSDP=2.53D-08 MaxDP=2.41D-07 DE=-5.35D-11 OVMax= 3.89D-07

 Cycle  11  Pass 1  IDiag  1:
 E= -135.162720357532     Delta-E=       -0.000000000004 Rises=F Damp=F
 DIIS: error= 2.12D-08 at cycle   6 NSaved=   6.
 NSaved= 6 IEnMin= 6 EnMin= -135.162720357532     IErMin= 6 ErrMin= 2.12D-08
 ErrMax= 2.12D-08  0.00D+00 EMaxC= 1.00D-01 BMatC= 2.89D-14 BMatP= 2.43D-12
 IDIUse=1 WtCom= 1.00D+00 WtEn= 0.00D+00
 Coeff-Com: -0.147D-03-0.334D-03-0.144D-02 0.125D-02 0.961D-01 0.905D+00
 Coeff:     -0.147D-03-0.334D-03-0.144D-02 0.125D-02 0.961D-01 0.905D+00
 Gap=     0.304 Goal=   None    Shift=    0.000
 RMSDP=4.99D-09 MaxDP=8.08D-08 DE=-3.58D-12 OVMax= 7.98D-08

 SCF Done:  E(RB3LYP) =  -135.162720358     A.U. after   11 cycles
            NFock= 11  Conv=0.50D-08     -V/T= 2.0101
 KE= 1.338169705871D+02 PE=-4.808456798473D+02 EE= 1.280047896198D+02
 Leave Link  502 at Thu Mar 19 18:41:58 2026, MaxMem=   536870912 cpu:         3.0
 (Enter C:\G09W\l701.exe)
 Compute integral first derivatives.
 ... and contract with generalized density number  0.
 Leave Link  701 at Thu Mar 19 18:41:58 2026, MaxMem=   536870912 cpu:         0.0
 (Enter C:\G09W\l702.exe)
 L702 exits ... SP integral derivatives will be done elsewhere.
 Leave Link  702 at Thu Mar 19 18:41:58 2026, MaxMem=   536870912 cpu:         0.0
 (Enter C:\G09W\l703.exe)
 Compute integral first derivatives, UseDBF=F ICtDFT=           0.
 Integral derivatives from FoFJK, PRISM(SPDF).
 Calling FoFJK, ICntrl=      2127 FMM=F ISym2X=0 I1Cent= 0 IOpClX= 0 NMat=1 NMatS=1 NMatT=0.
 FoFJK:  IHMeth= 1 ICntrl=    2127 DoSepK=F KAlg= 0 I1Cent=   0 FoldK=F
 IRaf=         0 NMat=   1 IRICut=       1 DoRegI=T DoRafI=F ISym2E= 0.
 FoFCou: FMM=F IPFlag=           0 FMFlag=      100000 FMFlg1=         800
         NFxFlg=           0 DoJE=F BraDBF=F KetDBF=F FulRan=T
         wScrn=  0.000000 ICntrl=    2127 IOpCl=  0 I1Cent=           0 NGrid=           0
         NMat0=    1 NMatS0=      1 NMatT0=    0 NMatD0=    1 NMtDS0=    0 NMtDT0=    0
 Symmetry not used in FoFCou.
 Leave Link  703 at Thu Mar 19 18:41:59 2026, MaxMem=   536870912 cpu:         1.0
 (Enter C:\G09W\l716.exe)
 Dipole        =-6.69266265D-08-8.15884840D-02 4.06641627D-01
 ***** Axes restored to original set *****
 -------------------------------------------------------------------
 Center     Atomic                   Forces (Hartrees/Bohr)
 Number     Number              X              Y              Z
 -------------------------------------------------------------------
      1        6           0.000590067   -0.001094057   -0.001373776
      2        7           0.000205602    0.001952459    0.002676010
      3        6          -0.000713586   -0.001268576   -0.001146297
      4        1          -0.000857641    0.001182103   -0.000240738
      5        1           0.000751407    0.000240236   -0.000168082
      6        1           0.001029421   -0.000157068    0.000137201
      7        1           0.000246174   -0.001829494    0.000007986
      8        1          -0.000799391    0.000032779    0.000102453
      9        1           0.000396709    0.001349961   -0.000459572
     10        1          -0.000848763   -0.000408342    0.000464815
 -------------------------------------------------------------------
 Cartesian Forces:  Max     0.002676010 RMS     0.000986195
 Leave Link  716 at Thu Mar 19 18:41:59 2026, MaxMem=   536870912 cpu:         0.0
 (Enter C:\G09W\l103.exe)

 GradGradGradGradGradGradGradGradGradGradGradGradGradGradGradGradGradGrad
 Berny optimization.
 Using GEDIIS/GDIIS optimizer.
 FormGI is forming the generalized inverse of G from B-inverse, IUseBI=4.
 Internal  Forces:  Max     0.001681696 RMS     0.000847013
 Search for a local minimum.
 Step number   2 out of a maximum of   46
 All quantities printed in internal units (Hartrees-Bohrs-Radians)
 RMS Force = .84701D-03 SwitMx=.10000D-02 MixMth= 2
 Mixed Optimization -- En-DIIS/RFO-DIIS
 Update second derivatives using D2CorX and points    1    2
 DE= -1.34D-03 DEPred=-1.61D-03 R= 8.34D-01
 TightC=F SS=  1.41D+00  RLast= 1.96D-01 DXNew= 5.0454D-01 5.8747D-01
 Trust test= 8.34D-01 RLast= 1.96D-01 DXMaxT set to 5.05D-01
 ITU=  1  0
 Use linear search instead of GDIIS.
     Eigenvalues ---    0.00922   0.00943   0.03038   0.06927   0.07100
     Eigenvalues ---    0.07657   0.07875   0.10977   0.15411   0.16000
     Eigenvalues ---    0.16000   0.16000   0.16000   0.18221   0.23967
     Eigenvalues ---    0.33431   0.34249   0.34258   0.34294   0.34307
     Eigenvalues ---    0.34705   0.37392   0.38345   0.44668
 RFO step:  Lambda=-1.12931676D-04 EMin= 9.22388524D-03
 Quartic linear search produced a step of -0.10451.
 Iteration  1 RMS(Cart)=  0.01118176 RMS(Int)=  0.00008454
 Iteration  2 RMS(Cart)=  0.00007182 RMS(Int)=  0.00004184
 Iteration  3 RMS(Cart)=  0.00000000 RMS(Int)=  0.00004184
 ITry= 1 IFail=0 DXMaxC= 2.49D-02 DCOld= 1.00D+10 DXMaxT= 5.05D-01 DXLimC= 3.00D+00 Rises=F
 Variable       Old X    -DE/DX   Delta X   Delta X   Delta X     New X
                                 (Linear)    (Quad)   (Total)
    R1        2.76133  -0.00163  -0.00091  -0.00272  -0.00363   2.75770
    R2        2.06934   0.00114  -0.00004   0.00303   0.00299   2.07232
    R3        2.09159  -0.00002  -0.00235   0.00297   0.00062   2.09221
    R4        2.07179  -0.00063  -0.00038  -0.00115  -0.00153   2.07026
    R5        2.76133  -0.00163  -0.00091  -0.00272  -0.00363   2.75770
    R6        1.92218   0.00130   0.00049   0.00200   0.00248   1.92466
    R7        2.09159  -0.00002  -0.00235   0.00297   0.00062   2.09221
    R8        2.06934   0.00114  -0.00004   0.00303   0.00299   2.07232
    R9        2.07179  -0.00063  -0.00038  -0.00115  -0.00153   2.07026
    A1        1.89490   0.00168   0.00480   0.00430   0.00908   1.90397
    A2        2.00580  -0.00113  -0.00620   0.00044  -0.00574   2.00006
    A3        1.91761  -0.00102  -0.00076  -0.00465  -0.00534   1.91227
    A4        1.87911  -0.00043   0.00263  -0.00610  -0.00353   1.87558
    A5        1.87500   0.00020   0.00012   0.00353   0.00367   1.87868
    A6        1.88697   0.00079  -0.00036   0.00271   0.00245   1.88942
    A7        1.96474  -0.00105  -0.00296   0.00177  -0.00122   1.96352
    A8        1.89309   0.00055   0.00136   0.00544   0.00677   1.89986
    A9        1.89309   0.00055   0.00136   0.00544   0.00677   1.89986
   A10        2.00580  -0.00113  -0.00620   0.00044  -0.00574   2.00006
   A11        1.89490   0.00168   0.00480   0.00430   0.00908   1.90397
   A12        1.91761  -0.00102  -0.00076  -0.00465  -0.00534   1.91227
   A13        1.87911  -0.00043   0.00263  -0.00610  -0.00353   1.87559
   A14        1.88697   0.00079  -0.00036   0.00271   0.00245   1.88942
   A15        1.87500   0.00020   0.00012   0.00353   0.00367   1.87868
    D1        1.10876  -0.00027  -0.00443   0.01212   0.00772   1.11648
    D2       -3.07951   0.00013  -0.00370   0.02369   0.02003  -3.05948
    D3       -0.99619  -0.00020  -0.00704   0.01651   0.00941  -0.98678
    D4        1.09873   0.00019  -0.00631   0.02808   0.02172   1.12045
    D5       -3.12855   0.00037  -0.00187   0.01623   0.01438  -3.11418
    D6       -1.03363   0.00076  -0.00115   0.02780   0.02669  -1.00695
    D7        0.99619   0.00020   0.00704  -0.01651  -0.00941   0.98678
    D8       -1.10876   0.00027   0.00443  -0.01212  -0.00772  -1.11648
    D9        3.12855  -0.00037   0.00187  -0.01623  -0.01438   3.11418
   D10       -1.09873  -0.00019   0.00631  -0.02808  -0.02172  -1.12045
   D11        3.07951  -0.00013   0.00370  -0.02369  -0.02003   3.05948
   D12        1.03363  -0.00076   0.00115  -0.02780  -0.02669   1.00694
         Item               Value     Threshold  Converged?
 Maximum Force            0.001682     0.000450     NO 
 RMS     Force            0.000847     0.000300     NO 
 Maximum Displacement     0.024878     0.001800     NO 
 RMS     Displacement     0.011195     0.001200     NO 
 Predicted change in Energy=-7.701775D-05
 Lowest energy point so far.  Saving SCF results.
 GradGradGradGradGradGradGradGradGradGradGradGradGradGradGradGradGradGrad

 Leave Link  103 at Thu Mar 19 18:41:59 2026, MaxMem=   536870912 cpu:         0.0
 (Enter C:\G09W\l202.exe)
                          Input orientation:                          
 ---------------------------------------------------------------------
 Center     Atomic      Atomic             Coordinates (Angstroms)
 Number     Number       Type             X           Y           Z
 ---------------------------------------------------------------------
      1          6           0       -1.207839   -0.056752    0.154364
      2          7           0        0.059606   -0.692937   -0.189784
      3          6           0        1.162321    0.260372   -0.259111
      4          1           0       -1.487136    0.641339   -0.643918
      5          1           0       -1.194885    0.512377    1.103948
      6          1           0       -1.993863   -0.816999    0.220607
      7          1           0        0.276512   -1.396487    0.513980
      8          1           0        1.321322    0.849042    0.664995
      9          1           0        0.971990    0.970365   -1.072914
     10          1           0        2.091970   -0.270320   -0.492168
 ---------------------------------------------------------------------
                    Distance matrix (angstroms):
                    1          2          3          4          5
     1  C    0.000000
     2  N    1.459310   0.000000
     3  C    2.426765   1.459310   0.000000
     4  H    1.096627   2.092591   2.704225   0.000000
     5  H    1.107152   2.168011   2.734567   1.776817   0.000000
     6  H    1.095535   2.097748   3.369325   1.769441   1.784908
     7  H    2.031628   1.018487   2.031628   2.933243   2.481296
     8  H    2.734567   2.168011   1.107152   3.105451   2.576299
     9  H    2.704225   2.092591   1.096627   2.517855   3.105451
    10  H    3.369325   2.097748   1.095535   3.696505   3.736792
                    6          7          8          9         10
     6  H    0.000000
     7  H    2.361456   0.000000
     8  H    3.736792   2.481297   0.000000
     9  H    3.696505   2.933243   1.776817   0.000000
    10  H    4.183412   2.361456   1.784908   1.769441   0.000000
 Stoichiometry    C2H7N
 Framework group  C1[X(C2H7N)]
 Deg. of freedom    24
 Full point group                 C1      NOp   1
 RotChk:  IX=0 Diff= 2.73D-03
 Largest Abelian subgroup         C1      NOp   1
 Largest concise Abelian subgroup C1      NOp   1
                         Standard orientation:                         
 ---------------------------------------------------------------------
 Center     Atomic      Atomic             Coordinates (Angstroms)
 Number     Number       Type             X           Y           Z
 ---------------------------------------------------------------------
      1          6           0        1.213382   -0.223617    0.020811
      2          7           0        0.000000    0.568731   -0.150867
      3          6           0       -1.213382   -0.223617    0.020811
      4          1           0        1.258927   -0.985110   -0.767000
      5          1           0        1.288150   -0.747037    0.993553
      6          1           0        2.091706    0.421714   -0.090059
      7          1           0        0.000000    1.323160    0.533349
      8          1           0       -1.288150   -0.747037    0.993553
      9          1           0       -1.258928   -0.985110   -0.767000
     10          1           0       -2.091706    0.421714   -0.090058
 ---------------------------------------------------------------------
 Rotational constants (GHZ):     34.4031824      9.2846726      8.1982230
 Leave Link  202 at Thu Mar 19 18:42:00 2026, MaxMem=   536870912 cpu:         0.0
 (Enter C:\G09W\l301.exe)
 Standard basis: 6-31G(d) (6D, 7F)
 Ernie: Thresh=  0.10000D-02 Tol=  0.10000D-05 Strict=F.
 There are    59 symmetry adapted cartesian basis functions of A   symmetry.
 There are    59 symmetry adapted basis functions of A   symmetry.
    59 basis functions,   112 primitive gaussians,    59 cartesian basis functions
    13 alpha electrons       13 beta electrons
       nuclear repulsion energy        83.9143692921 Hartrees.
 IExCor=  402 DFT=T Ex+Corr=B3LYP ExCW=0 ScaHFX=  0.200000
 ScaDFX=  0.800000  0.720000  1.000000  0.810000 ScalE2=  1.000000  1.000000
 IRadAn=      0 IRanWt=     -1 IRanGd=            0 ICorTp=0 IEmpDi=  4
 NAtoms=   10 NActive=   10 NUniq=   10 SFac= 1.00D+00 NAtFMM=   60 NAOKFM=F Big=F
 Integral buffers will be    131072 words long.
 Raffenetti 2 integral format.
 Two-electron integral symmetry is turned on.
 Leave Link  301 at Thu Mar 19 18:42:00 2026, MaxMem=   536870912 cpu:         0.0
 (Enter C:\G09W\l302.exe)
 NPDir=0 NMtPBC=     1 NCelOv=     1 NCel=       1 NClECP=     1 NCelD=      1
         NCelK=      1 NCelE2=     1 NClLst=     1 CellRange=     0.0.
 One-electron integrals computed using PRISM.
 NBasis=    59 RedAO= T EigKep=  7.63D-03  NBF=    59
 NBsUse=    59 1.00D-06 EigRej= -1.00D+00 NBFU=    59
 Precomputing XC quadrature grid using
 IXCGrd= 4 IRadAn=           0 IRanWt=          -1 IRanGd=           0 AccXCQ= 0.00D+00.
 Generated NRdTot=       0 NPtTot=           0 NUsed=           0 NTot=          32
 NSgBfM=    59    59    59    59    59 MxSgAt=    10 MxSgA2=    10.
 Leave Link  302 at Thu Mar 19 18:42:00 2026, MaxMem=   536870912 cpu:         0.0
 (Enter C:\G09W\l303.exe)
 DipDrv:  MaxL=1.
 Leave Link  303 at Thu Mar 19 18:42:00 2026, MaxMem=   536870912 cpu:         0.0
 (Enter C:\G09W\l401.exe)
 Initial guess from the checkpoint file:  "dimethylamine_rdkit.chk"
 B after Tr=     0.000000    0.000000    0.000000
         Rot=    1.000000   -0.000655    0.000000    0.000000 Ang=  -0.08 deg.
 Guess basis will be translated and rotated to current coordinates.
 JPrj=2 DoOrth=T DoCkMO=T.
 Generating alternative initial guess.
 ExpMin= 1.61D-01 ExpMax= 4.17D+03 ExpMxC= 6.27D+02 IAcc=1 IRadAn=         1 AccDes= 0.00D+00
 Harris functional with IExCor=  402 and IRadAn=       1 diagonalized for initial guess.
 HarFok:  IExCor=  402 AccDes= 0.00D+00 IRadAn=         1 IDoV= 1 UseB2=F ITyADJ=14
 ICtDFT=  3500011 ScaDFX=  1.000000  1.000000  1.000000  1.000000
 FoFCou: FMM=F IPFlag=           0 FMFlag=      100000 FMFlg1=           0
         NFxFlg=           0 DoJE=T BraDBF=F KetDBF=T FulRan=T
         wScrn=  0.000000 ICntrl=     500 IOpCl=  0 I1Cent=   200000004 NGrid=           0
         NMat0=    1 NMatS0=      1 NMatT0=    0 NMatD0=    1 NMtDS0=    0 NMtDT0=    0
 Petite list used in FoFCou.
 Harris En= -135.187681844906    
 Leave Link  401 at Thu Mar 19 18:42:01 2026, MaxMem=   536870912 cpu:         0.0
 (Enter C:\G09W\l502.exe)
 Closed shell SCF:
 Using DIIS extrapolation, IDIIS=  1040.
 Integral symmetry usage will be decided dynamically.
 Keep R1 ints in memory in canonical form, NReq=2474769.
 IVT=       29806 IEndB=       29806 NGot=   536870912 MDV=   535273772
 LenX=   535273772 LenY=   535269850
 Requested convergence on RMS density matrix=1.00D-08 within 128 cycles.
 Requested convergence on MAX density matrix=1.00D-06.
 Requested convergence on             energy=1.00D-06.
 No special actions if energy rises.
 FoFCou: FMM=F IPFlag=           0 FMFlag=           0 FMFlg1=           0
         NFxFlg=           0 DoJE=F BraDBF=F KetDBF=F FulRan=T
         wScrn=  0.000000 ICntrl=     600 IOpCl=  0 I1Cent=           0 NGrid=           0
         NMat0=    1 NMatS0=   1770 NMatT0=    0 NMatD0=    1 NMtDS0=    0 NMtDT0=    0
 Symmetry not used in FoFCou.
 Integral accuracy reduced to 1.0D-05 until final iterations.

 Cycle   1  Pass 0  IDiag  1:
 E= -135.162768945015    
 DIIS: error= 7.52D-04 at cycle   1 NSaved=   1.
 NSaved= 1 IEnMin= 1 EnMin= -135.162768945015     IErMin= 1 ErrMin= 7.52D-04
 ErrMax= 7.52D-04  0.00D+00 EMaxC= 1.00D-01 BMatC= 4.26D-05 BMatP= 4.26D-05
 IDIUse=3 WtCom= 9.92D-01 WtEn= 7.52D-03
 Coeff-Com:  0.100D+01
 Coeff-En:   0.100D+01
 Coeff:      0.100D+01
 Gap=     1.622 Goal=   None    Shift=    0.000
 RMSDP=1.80D-04 MaxDP=1.94D-03              OVMax= 3.58D-03

 Cycle   2  Pass 0  IDiag  1:
 E= -135.162850291120     Delta-E=       -0.000081346104 Rises=F Damp=F
 DIIS: error= 1.10D-04 at cycle   2 NSaved=   2.
 NSaved= 2 IEnMin= 2 EnMin= -135.162850291120     IErMin= 2 ErrMin= 1.10D-04
 ErrMax= 1.10D-04  0.00D+00 EMaxC= 1.00D-01 BMatC= 6.36D-07 BMatP= 4.26D-05
 IDIUse=3 WtCom= 9.99D-01 WtEn= 1.10D-03
 Coeff-Com: -0.517D-01 0.105D+01
 Coeff-En:   0.000D+00 0.100D+01
 Coeff:     -0.516D-01 0.105D+01
 Gap=     0.303 Goal=   None    Shift=    0.000
 RMSDP=3.43D-05 MaxDP=3.44D-04 DE=-8.13D-05 OVMax= 6.40D-04

 Cycle   3  Pass 0  IDiag  1:
 E= -135.162851140376     Delta-E=       -0.000000849257 Rises=F Damp=F
 DIIS: error= 5.86D-05 at cycle   3 NSaved=   3.
 NSaved= 3 IEnMin= 3 EnMin= -135.162851140376     IErMin= 3 ErrMin= 5.86D-05
 ErrMax= 5.86D-05  0.00D+00 EMaxC= 1.00D-01 BMatC= 3.25D-07 BMatP= 6.36D-07
 IDIUse=1 WtCom= 1.00D+00 WtEn= 0.00D+00
 Coeff-Com: -0.338D-01 0.454D+00 0.580D+00
 Coeff:     -0.338D-01 0.454D+00 0.580D+00
 Gap=     0.303 Goal=   None    Shift=    0.000
 RMSDP=1.23D-05 MaxDP=1.57D-04 DE=-8.49D-07 OVMax= 1.87D-04

 Cycle   4  Pass 0  IDiag  1:
 E= -135.162851418541     Delta-E=       -0.000000278165 Rises=F Damp=F
 DIIS: error= 2.16D-05 at cycle   4 NSaved=   4.
 NSaved= 4 IEnMin= 4 EnMin= -135.162851418541     IErMin= 4 ErrMin= 2.16D-05
 ErrMax= 2.16D-05  0.00D+00 EMaxC= 1.00D-01 BMatC= 3.87D-08 BMatP= 3.25D-07
 IDIUse=1 WtCom= 1.00D+00 WtEn= 0.00D+00
 Coeff-Com: -0.115D-01 0.118D+00 0.285D+00 0.608D+00
 Coeff:     -0.115D-01 0.118D+00 0.285D+00 0.608D+00
 Gap=     0.303 Goal=   None    Shift=    0.000
 RMSDP=3.56D-06 MaxDP=5.85D-05 DE=-2.78D-07 OVMax= 6.21D-05

 Initial convergence to 1.0D-05 achieved.  Increase integral accuracy.
 Cycle   5  Pass 1  IDiag  1:
 E= -135.162817485936     Delta-E=        0.000033932605 Rises=F Damp=F
 DIIS: error= 7.86D-06 at cycle   1 NSaved=   1.
 NSaved= 1 IEnMin= 1 EnMin= -135.162817485936     IErMin= 1 ErrMin= 7.86D-06
 ErrMax= 7.86D-06  0.00D+00 EMaxC= 1.00D-01 BMatC= 8.53D-09 BMatP= 8.53D-09
 IDIUse=1 WtCom= 1.00D+00 WtEn= 0.00D+00
 Coeff-Com:  0.100D+01
 Coeff:      0.100D+01
 Gap=     0.303 Goal=   None    Shift=    0.000
 RMSDP=3.56D-06 MaxDP=5.85D-05 DE= 3.39D-05 OVMax= 3.54D-05

 Cycle   6  Pass 1  IDiag  1:
 E= -135.162817495062     Delta-E=       -0.000000009126 Rises=F Damp=F
 DIIS: error= 4.41D-06 at cycle   2 NSaved=   2.
 NSaved= 2 IEnMin= 2 EnMin= -135.162817495062     IErMin= 2 ErrMin= 4.41D-06
 ErrMax= 4.41D-06  0.00D+00 EMaxC= 1.00D-01 BMatC= 2.13D-09 BMatP= 8.53D-09
 IDIUse=1 WtCom= 1.00D+00 WtEn= 0.00D+00
 Coeff-Com:  0.255D+00 0.745D+00
 Coeff:      0.255D+00 0.745D+00
 Gap=     0.303 Goal=   None    Shift=    0.000
 RMSDP=1.05D-06 MaxDP=1.48D-05 DE=-9.13D-09 OVMax= 1.61D-05

 Cycle   7  Pass 1  IDiag  1:
 E= -135.162817495878     Delta-E=       -0.000000000816 Rises=F Damp=F
 DIIS: error= 3.55D-06 at cycle   3 NSaved=   3.
 NSaved= 3 IEnMin= 3 EnMin= -135.162817495878     IErMin= 3 ErrMin= 3.55D-06
 ErrMax= 3.55D-06  0.00D+00 EMaxC= 1.00D-01 BMatC= 1.23D-09 BMatP= 2.13D-09
 IDIUse=1 WtCom= 1.00D+00 WtEn= 0.00D+00
 Coeff-Com: -0.137D-01 0.432D+00 0.582D+00
 Coeff:     -0.137D-01 0.432D+00 0.582D+00
 Gap=     0.303 Goal=   None    Shift=    0.000
 RMSDP=4.63D-07 MaxDP=7.49D-06 DE=-8.16D-10 OVMax= 7.62D-06

 Cycle   8  Pass 1  IDiag  1:
 E= -135.162817496880     Delta-E=       -0.000000001002 Rises=F Damp=F
 DIIS: error= 4.28D-07 at cycle   4 NSaved=   4.
 NSaved= 4 IEnMin= 4 EnMin= -135.162817496880     IErMin= 4 ErrMin= 4.28D-07
 ErrMax= 4.28D-07  0.00D+00 EMaxC= 1.00D-01 BMatC= 1.84D-11 BMatP= 1.23D-09
 IDIUse=1 WtCom= 1.00D+00 WtEn= 0.00D+00
 Coeff-Com: -0.128D-01 0.176D+00 0.260D+00 0.578D+00
 Coeff:     -0.128D-01 0.176D+00 0.260D+00 0.578D+00
 Gap=     0.303 Goal=   None    Shift=    0.000
 RMSDP=8.65D-08 MaxDP=1.08D-06 DE=-1.00D-09 OVMax= 1.27D-06

 Cycle   9  Pass 1  IDiag  1:
 E= -135.162817496897     Delta-E=       -0.000000000018 Rises=F Damp=F
 DIIS: error= 1.38D-07 at cycle   5 NSaved=   5.
 NSaved= 5 IEnMin= 5 EnMin= -135.162817496897     IErMin= 5 ErrMin= 1.38D-07
 ErrMax= 1.38D-07  0.00D+00 EMaxC= 1.00D-01 BMatC= 1.12D-12 BMatP= 1.84D-11
 IDIUse=1 WtCom= 1.00D+00 WtEn= 0.00D+00
 Coeff-Com: -0.421D-02 0.481D-01 0.742D-01 0.258D+00 0.624D+00
 Coeff:     -0.421D-02 0.481D-01 0.742D-01 0.258D+00 0.624D+00
 Gap=     0.303 Goal=   None    Shift=    0.000
 RMSDP=1.96D-08 MaxDP=1.95D-07 DE=-1.76D-11 OVMax= 2.70D-07

 Cycle  10  Pass 1  IDiag  1:
 E= -135.162817496900     Delta-E=       -0.000000000003 Rises=F Damp=F
 DIIS: error= 1.91D-08 at cycle   6 NSaved=   6.
 NSaved= 6 IEnMin= 6 EnMin= -135.162817496900     IErMin= 6 ErrMin= 1.91D-08
 ErrMax= 1.91D-08  0.00D+00 EMaxC= 1.00D-01 BMatC= 2.28D-14 BMatP= 1.12D-12
 IDIUse=1 WtCom= 1.00D+00 WtEn= 0.00D+00
 Coeff-Com: -0.292D-03 0.104D-02 0.262D-02 0.321D-01 0.166D+00 0.799D+00
 Coeff:     -0.292D-03 0.104D-02 0.262D-02 0.321D-01 0.166D+00 0.799D+00
 Gap=     0.303 Goal=   None    Shift=    0.000
 RMSDP=3.48D-09 MaxDP=2.75D-08 DE=-2.76D-12 OVMax= 5.62D-08

 SCF Done:  E(RB3LYP) =  -135.162817497     A.U. after   10 cycles
            NFock= 10  Conv=0.35D-08     -V/T= 2.0101
 KE= 1.338163690104D+02 PE=-4.809525715417D+02 EE= 1.280590157423D+02
 Leave Link  502 at Thu Mar 19 18:42:04 2026, MaxMem=   536870912 cpu:         3.0
 (Enter C:\G09W\l701.exe)
 Compute integral first derivatives.
 ... and contract with generalized density number  0.
 Leave Link  701 at Thu Mar 19 18:42:04 2026, MaxMem=   536870912 cpu:         0.0
 (Enter C:\G09W\l702.exe)
 L702 exits ... SP integral derivatives will be done elsewhere.
 Leave Link  702 at Thu Mar 19 18:42:05 2026, MaxMem=   536870912 cpu:         0.0
 (Enter C:\G09W\l703.exe)
 Compute integral first derivatives, UseDBF=F ICtDFT=           0.
 Integral derivatives from FoFJK, PRISM(SPDF).
 Calling FoFJK, ICntrl=      2127 FMM=F ISym2X=0 I1Cent= 0 IOpClX= 0 NMat=1 NMatS=1 NMatT=0.
 FoFJK:  IHMeth= 1 ICntrl=    2127 DoSepK=F KAlg= 0 I1Cent=   0 FoldK=F
 IRaf=         0 NMat=   1 IRICut=       1 DoRegI=T DoRafI=F ISym2E= 0.
 FoFCou: FMM=F IPFlag=           0 FMFlag=      100000 FMFlg1=         800
         NFxFlg=           0 DoJE=F BraDBF=F KetDBF=F FulRan=T
         wScrn=  0.000000 ICntrl=    2127 IOpCl=  0 I1Cent=           0 NGrid=           0
         NMat0=    1 NMatS0=      1 NMatT0=    0 NMatD0=    1 NMtDS0=    0 NMtDT0=    0
 Symmetry not used in FoFCou.
 Leave Link  703 at Thu Mar 19 18:42:05 2026, MaxMem=   536870912 cpu:         0.0
 (Enter C:\G09W\l716.exe)
 Dipole        =-3.68847157D-08-7.14279657D-02 4.03228422D-01
 ***** Axes restored to original set *****
 -------------------------------------------------------------------
 Center     Atomic                   Forces (Hartrees/Bohr)
 Number     Number              X              Y              Z
 -------------------------------------------------------------------
      1        6           0.000314075   -0.000936050   -0.000337890
      2        7          -0.000049012    0.001589723    0.000938228
      3        6          -0.000158651   -0.000999302   -0.000255410
      4        1          -0.000116787    0.000065382   -0.000014425
      5        1           0.000218458    0.000135971   -0.000089353
      6        1           0.000083385    0.000112978    0.000155999
      7        1          -0.000060626   -0.000227384   -0.000521912
      8        1          -0.000262763    0.000071585   -0.000005419
      9        1           0.000084532    0.000092320   -0.000049534
     10        1          -0.000052611    0.000094776    0.000179716
 -------------------------------------------------------------------
 Cartesian Forces:  Max     0.001589723 RMS     0.000454181
 Leave Link  716 at Thu Mar 19 18:42:06 2026, MaxMem=   536870912 cpu:         0.0
 (Enter C:\G09W\l103.exe)

 GradGradGradGradGradGradGradGradGradGradGradGradGradGradGradGradGradGrad
 Berny optimization.
 Using GEDIIS/GDIIS optimizer.
 FormGI is forming the generalized inverse of G from B-inverse, IUseBI=4.
 Internal  Forces:  Max     0.000772303 RMS     0.000239770
 Search for a local minimum.
 Step number   3 out of a maximum of   46
 All quantities printed in internal units (Hartrees-Bohrs-Radians)
 RMS Force = .23977D-03 SwitMx=.10000D-02 MixMth= 2
 Mixed Optimization -- En-DIIS/RFO-DIIS
 Swapping is turned off.
 Update second derivatives using D2CorX and points    1    2    3
 DE= -9.71D-05 DEPred=-7.70D-05 R= 1.26D+00
 TightC=F SS=  1.41D+00  RLast= 6.62D-02 DXNew= 8.4853D-01 1.9856D-01
 Trust test= 1.26D+00 RLast= 6.62D-02 DXMaxT set to 5.05D-01
 ITU=  1  1  0
     Eigenvalues ---    0.00631   0.00943   0.02900   0.06977   0.07056
     Eigenvalues ---    0.07631   0.07723   0.11016   0.15900   0.15976
     Eigenvalues ---    0.16000   0.16000   0.16000   0.18152   0.25389
     Eigenvalues ---    0.33424   0.34249   0.34258   0.34292   0.34307
     Eigenvalues ---    0.35002   0.36328   0.37392   0.45960
 En-DIIS/RFO-DIIS IScMMF=        0 using points:     3    2
 RFO step:  Lambda=-6.99596900D-06.
 NNeg= 0 NP= 2 Switch=  2.50D-03 Rises=F DC=  9.71D-05 SmlDif=  1.00D-05
 RMS Error=  0.1177958072D-02 NUsed= 2 EDIIS=F
 DidBck=F Rises=F RFO-DIIS coefs:    1.38946   -0.38946
 Iteration  1 RMS(Cart)=  0.01253721 RMS(Int)=  0.00008788
 Iteration  2 RMS(Cart)=  0.00009315 RMS(Int)=  0.00000882
 Iteration  3 RMS(Cart)=  0.00000000 RMS(Int)=  0.00000882
 ITry= 1 IFail=0 DXMaxC= 3.52D-02 DCOld= 1.00D+10 DXMaxT= 5.05D-01 DXLimC= 3.00D+00 Rises=F
 Variable       Old X    -DE/DX   Delta X   Delta X   Delta X     New X
                                 (Linear)    (Quad)   (Total)
    R1        2.75770  -0.00077  -0.00141  -0.00214  -0.00356   2.75414
    R2        2.07232   0.00008   0.00116  -0.00019   0.00097   2.07330
    R3        2.09221   0.00000   0.00024   0.00030   0.00054   2.09275
    R4        2.07026  -0.00013  -0.00060  -0.00019  -0.00079   2.06947
    R5        2.75770  -0.00077  -0.00141  -0.00214  -0.00356   2.75414
    R6        1.92466  -0.00022   0.00097  -0.00124  -0.00027   1.92439
    R7        2.09221   0.00000   0.00024   0.00030   0.00054   2.09275
    R8        2.07232   0.00008   0.00116  -0.00019   0.00097   2.07330
    R9        2.07026  -0.00013  -0.00060  -0.00019  -0.00079   2.06947
    A1        1.90397   0.00018   0.00353  -0.00086   0.00267   1.90665
    A2        2.00006  -0.00033  -0.00223  -0.00131  -0.00355   1.99651
    A3        1.91227   0.00015  -0.00208   0.00295   0.00086   1.91314
    A4        1.87558  -0.00004  -0.00137  -0.00111  -0.00248   1.87311
    A5        1.87868  -0.00002   0.00143   0.00020   0.00163   1.88031
    A6        1.88942   0.00007   0.00095   0.00014   0.00109   1.89050
    A7        1.96352   0.00036  -0.00047   0.00386   0.00337   1.96689
    A8        1.89986  -0.00005   0.00264   0.00046   0.00307   1.90293
    A9        1.89986  -0.00005   0.00264   0.00046   0.00307   1.90293
   A10        2.00006  -0.00033  -0.00223  -0.00131  -0.00355   1.99651
   A11        1.90397   0.00018   0.00353  -0.00086   0.00267   1.90665
   A12        1.91227   0.00015  -0.00208   0.00295   0.00086   1.91314
   A13        1.87559  -0.00004  -0.00137  -0.00111  -0.00248   1.87311
   A14        1.88942   0.00007   0.00095   0.00014   0.00109   1.89050
   A15        1.87868  -0.00002   0.00143   0.00020   0.00163   1.88031
    D1        1.11648  -0.00004   0.00301   0.01320   0.01620   1.13267
    D2       -3.05948   0.00009   0.00780   0.01658   0.02438  -3.03510
    D3       -0.98678   0.00010   0.00366   0.01614   0.01981  -0.96697
    D4        1.12045   0.00023   0.00846   0.01952   0.02799   1.14844
    D5       -3.11418   0.00012   0.00560   0.01464   0.02023  -3.09394
    D6       -1.00695   0.00025   0.01039   0.01802   0.02841  -0.97853
    D7        0.98678  -0.00010  -0.00366  -0.01614  -0.01981   0.96697
    D8       -1.11648   0.00004  -0.00301  -0.01320  -0.01620  -1.13267
    D9        3.11418  -0.00012  -0.00560  -0.01464  -0.02023   3.09394
   D10       -1.12045  -0.00023  -0.00846  -0.01952  -0.02799  -1.14844
   D11        3.05948  -0.00009  -0.00780  -0.01658  -0.02438   3.03510
   D12        1.00694  -0.00025  -0.01039  -0.01802  -0.02841   0.97853
         Item               Value     Threshold  Converged?
 Maximum Force            0.000772     0.000450     NO 
 RMS     Force            0.000240     0.000300     YES
 Maximum Displacement     0.035234     0.001800     NO 
 RMS     Displacement     0.012533     0.001200     NO 
 Predicted change in Energy=-2.498623D-05
 Lowest energy point so far.  Saving SCF results.
 GradGradGradGradGradGradGradGradGradGradGradGradGradGradGradGradGradGrad

 Leave Link  103 at Thu Mar 19 18:42:06 2026, MaxMem=   536870912 cpu:         0.0
 (Enter C:\G09W\l202.exe)
                          Input orientation:                          
 ---------------------------------------------------------------------
 Center     Atomic      Atomic             Coordinates (Angstroms)
 Number     Number       Type             X           Y           Z
 ---------------------------------------------------------------------
      1          6           0       -1.207590   -0.056422    0.154845
      2          7           0        0.057955   -0.688491   -0.195837
      3          6           0        1.162171    0.260649   -0.258561
      4          1           0       -1.498562    0.637656   -0.643473
      5          1           0       -1.184567    0.519608    1.100401
      6          1           0       -1.989492   -0.818943    0.235301
      7          1           0        0.274315   -1.404378    0.495335
      8          1           0        1.308929    0.853234    0.665410
      9          1           0        0.983451    0.969745   -1.076461
     10          1           0        2.093389   -0.272659   -0.476960
 ---------------------------------------------------------------------
                    Distance matrix (angstroms):
                    1          2          3          4          5
     1  C    0.000000
     2  N    1.457427   0.000000
     3  C    2.426357   1.457427   0.000000
     4  H    1.097142   2.093272   2.714736   0.000000
     5  H    1.107438   2.164162   2.724155   1.775845   0.000000
[...]
 (Enter C:\G09W\l716.exe)
 Dipole        = 6.72452716D-09-5.95566824D-02 3.99814938D-01
 ***** Axes restored to original set *****
 -------------------------------------------------------------------
 Center     Atomic                   Forces (Hartrees/Bohr)
 Number     Number              X              Y              Z
 -------------------------------------------------------------------
      1        6           0.000003877    0.000110088    0.000051236
      2        7          -0.000002804   -0.000003413   -0.000018688
      3        6          -0.000014568    0.000107631    0.000054447
      4        1           0.000006884   -0.000067580   -0.000004534
      5        1           0.000001422   -0.000058722   -0.000015398
      6        1          -0.000080336   -0.000011771    0.000012379
      7        1          -0.000012594    0.000039084   -0.000042213
      8        1           0.000008575   -0.000057769   -0.000016645
      9        1           0.000009490   -0.000067236   -0.000004986
     10        1           0.000080054    0.000009687   -0.000015598
 -------------------------------------------------------------------
 Cartesian Forces:  Max     0.000110088 RMS     0.000046005
 Leave Link  716 at Thu Mar 19 18:42:17 2026, MaxMem=   536870912 cpu:         0.0
 (Enter C:\G09W\l103.exe)

 GradGradGradGradGradGradGradGradGradGradGradGradGradGradGradGradGradGrad
 Berny optimization.
 Using GEDIIS/GDIIS optimizer.
 FormGI is forming the generalized inverse of G from B-inverse, IUseBI=4.
 Internal  Forces:  Max     0.000066739 RMS     0.000038482
 Search for a local minimum.
 Step number   5 out of a maximum of   46
 All quantities printed in internal units (Hartrees-Bohrs-Radians)
 RMS Force = .38482D-04 SwitMx=.10000D-02 MixMth= 2
 Mixed Optimization -- En-DIIS/RFO-DIIS
 Swapping is turned off.
 Update second derivatives using D2CorX and points    1    2    3    4    5
 DE= -3.41D-06 DEPred=-3.19D-06 R= 1.07D+00
 TightC=F SS=  1.41D+00  RLast= 3.48D-02 DXNew= 8.4853D-01 1.0445D-01
 Trust test= 1.07D+00 RLast= 3.48D-02 DXMaxT set to 5.05D-01
 ITU=  1  1  1  1  0
     Eigenvalues ---    0.00417   0.00943   0.02865   0.06993   0.07233
     Eigenvalues ---    0.07609   0.07785   0.11091   0.15879   0.16000
     Eigenvalues ---    0.16000   0.16000   0.17189   0.17999   0.24673
     Eigenvalues ---    0.34249   0.34258   0.34305   0.34307   0.34459
     Eigenvalues ---    0.35010   0.37039   0.37392   0.45370
 En-DIIS/RFO-DIIS IScMMF=        0 using points:     5    4    3    2
 RFO step:  Lambda=-1.09268751D-07.
 NNeg= 0 NP= 4 Switch=  2.50D-03 Rises=F DC=  9.71D-05 SmlDif=  1.00D-05
 RMS Error=  0.8884871749D-04 NUsed= 4 EDIIS=F
 DidBck=F Rises=F RFO-DIIS coefs:    1.10358   -0.08470   -0.05152    0.03264
 Iteration  1 RMS(Cart)=  0.00063271 RMS(Int)=  0.00000071
 Iteration  2 RMS(Cart)=  0.00000025 RMS(Int)=  0.00000069
 ITry= 1 IFail=0 DXMaxC= 1.76D-03 DCOld= 1.00D+10 DXMaxT= 5.05D-01 DXLimC= 3.00D+00 Rises=F
 Variable       Old X    -DE/DX   Delta X   Delta X   Delta X     New X
                                 (Linear)    (Quad)   (Total)
    R1        2.75344   0.00006  -0.00002   0.00014   0.00012   2.75356
    R2        2.07309  -0.00004  -0.00010   0.00000  -0.00010   2.07300
    R3        2.09296  -0.00004   0.00001  -0.00014  -0.00013   2.09283
    R4        2.06946   0.00007   0.00003   0.00016   0.00019   2.06965
    R5        2.75344   0.00006  -0.00002   0.00014   0.00012   2.75356
    R6        1.92364  -0.00006  -0.00016   0.00004  -0.00012   1.92351
    R7        2.09296  -0.00004   0.00001  -0.00014  -0.00013   2.09283
    R8        2.07309  -0.00004  -0.00010   0.00000  -0.00010   2.07300
    R9        2.06946   0.00007   0.00003   0.00016   0.00019   2.06965
    A1        1.90695  -0.00004  -0.00021   0.00010  -0.00012   1.90683
    A2        1.99731  -0.00002   0.00020  -0.00027  -0.00007   1.99725
    A3        1.91339   0.00007   0.00022   0.00007   0.00029   1.91367
    A4        1.87335   0.00005   0.00009   0.00034   0.00044   1.87378
    A5        1.87937  -0.00003  -0.00019  -0.00013  -0.00032   1.87905
    A6        1.88973  -0.00003  -0.00014  -0.00010  -0.00024   1.88949
    A7        1.96773   0.00006   0.00019   0.00002   0.00021   1.96793
    A8        1.90410  -0.00002  -0.00004   0.00000  -0.00004   1.90406
    A9        1.90410  -0.00002  -0.00004   0.00000  -0.00004   1.90406
   A10        1.99731  -0.00002   0.00020  -0.00027  -0.00007   1.99725
   A11        1.90695  -0.00004  -0.00021   0.00010  -0.00012   1.90683
   A12        1.91339   0.00007   0.00022   0.00007   0.00029   1.91367
   A13        1.87335   0.00005   0.00009   0.00034   0.00044   1.87378
   A14        1.88973  -0.00003  -0.00014  -0.00010  -0.00024   1.88949
   A15        1.87937  -0.00003  -0.00019  -0.00013  -0.00032   1.87905
    D1        1.14176   0.00002   0.00100   0.00029   0.00129   1.14305
    D2       -3.02314   0.00002   0.00104   0.00030   0.00134  -3.02180
    D3       -0.95895   0.00000   0.00090  -0.00004   0.00086  -0.95808
    D4        1.15933  -0.00001   0.00095  -0.00003   0.00091   1.16024
    D5       -3.08567   0.00000   0.00077   0.00023   0.00100  -3.08466
    D6       -0.96739   0.00000   0.00082   0.00024   0.00106  -0.96633
    D7        0.95895   0.00000  -0.00090   0.00004  -0.00086   0.95808
    D8       -1.14176  -0.00002  -0.00100  -0.00029  -0.00129  -1.14305
    D9        3.08567   0.00000  -0.00077  -0.00023  -0.00100   3.08466
   D10       -1.15933   0.00001  -0.00095   0.00003  -0.00091  -1.16024
   D11        3.02314  -0.00002  -0.00104  -0.00030  -0.00134   3.02180
   D12        0.96739   0.00000  -0.00082  -0.00024  -0.00106   0.96633
         Item               Value     Threshold  Converged?
 Maximum Force            0.000067     0.000450     YES
 RMS     Force            0.000038     0.000300     YES
 Maximum Displacement     0.001756     0.001800     YES
 RMS     Displacement     0.000633     0.001200     YES
 Predicted change in Energy=-1.415295D-07
 Optimization completed.
    -- Stationary point found.
                           ----------------------------
                           !   Optimized Parameters   !
                           ! (Angstroms and Degrees)  !
 --------------------------                            --------------------------
 ! Name  Definition              Value          Derivative Info.                !
 --------------------------------------------------------------------------------
 ! R1    R(1,2)                  1.4571         -DE/DX =    0.0001              !
 ! R2    R(1,4)                  1.097          -DE/DX =    0.0                 !
 ! R3    R(1,5)                  1.1075         -DE/DX =    0.0                 !
 ! R4    R(1,6)                  1.0951         -DE/DX =    0.0001              !
 ! R5    R(2,3)                  1.4571         -DE/DX =    0.0001              !
 ! R6    R(2,7)                  1.0179         -DE/DX =   -0.0001              !
 ! R7    R(3,8)                  1.1075         -DE/DX =    0.0                 !
 ! R8    R(3,9)                  1.097          -DE/DX =    0.0                 !
 ! R9    R(3,10)                 1.0951         -DE/DX =    0.0001              !
 ! A1    A(2,1,4)              109.2602         -DE/DX =    0.0                 !
 ! A2    A(2,1,5)              114.4376         -DE/DX =    0.0                 !
 ! A3    A(2,1,6)              109.6289         -DE/DX =    0.0001              !
 ! A4    A(4,1,5)              107.335          -DE/DX =    0.0                 !
 ! A5    A(4,1,6)              107.6797         -DE/DX =    0.0                 !
 ! A6    A(5,1,6)              108.2738         -DE/DX =    0.0                 !
 ! A7    A(1,2,3)              112.7424         -DE/DX =    0.0001              !
 ! A8    A(1,2,7)              109.097          -DE/DX =    0.0                 !
 ! A9    A(3,2,7)              109.097          -DE/DX =    0.0                 !
 ! A10   A(2,3,8)              114.4376         -DE/DX =    0.0                 !
 ! A11   A(2,3,9)              109.2602         -DE/DX =    0.0                 !
 ! A12   A(2,3,10)             109.6289         -DE/DX =    0.0001              !
 ! A13   A(8,3,9)              107.335          -DE/DX =    0.0                 !
 ! A14   A(8,3,10)             108.2738         -DE/DX =    0.0                 !
 ! A15   A(9,3,10)             107.6797         -DE/DX =    0.0                 !
 ! D1    D(4,1,2,3)             65.4183         -DE/DX =    0.0                 !
 ! D2    D(4,1,2,7)           -173.2133         -DE/DX =    0.0                 !
 ! D3    D(5,1,2,3)            -54.9436         -DE/DX =    0.0                 !
 ! D4    D(5,1,2,7)             66.4248         -DE/DX =    0.0                 !
 ! D5    D(6,1,2,3)           -176.7958         -DE/DX =    0.0                 !
 ! D6    D(6,1,2,7)            -55.4274         -DE/DX =    0.0                 !
 ! D7    D(1,2,3,8)             54.9436         -DE/DX =    0.0                 !
 ! D8    D(1,2,3,9)            -65.4183         -DE/DX =    0.0                 !
 ! D9    D(1,2,3,10)           176.7958         -DE/DX =    0.0                 !
 ! D10   D(7,2,3,8)            -66.4248         -DE/DX =    0.0                 !
 ! D11   D(7,2,3,9)            173.2133         -DE/DX =    0.0                 !
 ! D12   D(7,2,3,10)            55.4274         -DE/DX =    0.0                 !
 --------------------------------------------------------------------------------
 Lowest energy point so far.  Saving SCF results.
 GradGradGradGradGradGradGradGradGradGradGradGradGradGradGradGradGradGrad

 Largest change from initial coordinates is atom    5       0.075 Angstoms.
 Leave Link  103 at Thu Mar 19 18:42:18 2026, MaxMem=   536870912 cpu:         0.0
 (Enter C:\G09W\l202.exe)
                          Input orientation:                          
 ---------------------------------------------------------------------
 Center     Atomic      Atomic             Coordinates (Angstroms)
 Number     Number       Type             X           Y           Z
 ---------------------------------------------------------------------
      1          6           0       -1.207555   -0.055940    0.155602
      2          7           0        0.057229   -0.686704   -0.198630
      3          6           0        1.162268    0.261139   -0.257815
      4          1           0       -1.503605    0.635043   -0.643385
      5          1           0       -1.182475    0.522567    1.099718
      6          1           0       -1.988066   -0.819309    0.241270
      7          1           0        0.273256   -1.407727    0.486697
      8          1           0        1.306047    0.855528    0.665594
      9          1           0        0.988725    0.968513   -1.078173
     10          1           0        2.094174   -0.273111   -0.470878
 ---------------------------------------------------------------------
                    Distance matrix (angstroms):
                    1          2          3          4          5
     1  C    0.000000
     2  N    1.457059   0.000000
     3  C    2.426420   1.457059   0.000000
     4  H    1.097034   2.093090   2.719439   0.000000
     5  H    1.107544   2.164465   2.721959   1.776002   0.000000
     6  H    1.095111   2.096265   3.367649   1.769875   1.785088
     7  H    2.032179   1.017946   2.032179   2.933808   2.494189
     8  H    2.721959   2.164465   1.107544   3.107440   2.547953
     9  H    2.719439   2.093090   1.097034   2.551853   3.107440
    10  H    3.367649   2.096265   1.095111   3.714636   3.719719
                    6          7          8          9         10
     6  H    0.000000
     7  H    2.349478   0.000000
     8  H    3.719719   2.494189   0.000000
     9  H    3.714636   2.933808   1.776002   0.000000
    10  H    4.179733   2.349478   1.785088   1.769875   0.000000
 Stoichiometry    C2H7N
 Framework group  C1[X(C2H7N)]
 Deg. of freedom    24
 Full point group                 C1      NOp   1
 RotChk:  IX=0 Diff= 4.20D-10
 Largest Abelian subgroup         C1      NOp   1
 Largest concise Abelian subgroup C1      NOp   1
                         Standard orientation:                         
 ---------------------------------------------------------------------
 Center     Atomic      Atomic             Coordinates (Angstroms)
 Number     Number       Type             X           Y           Z
 ---------------------------------------------------------------------
      1          6           0        1.213210   -0.222783    0.020529
      2          7           0        0.000000    0.565882   -0.150202
      3          6           0       -1.213210   -0.222783    0.020529
      4          1           0        1.275926   -0.968504   -0.781625
      5          1           0        1.273977   -0.767471    0.982962
      6          1           0        2.089867    0.428386   -0.061447
      7          1           0        0.000000    1.327405    0.525295
      8          1           0       -1.273977   -0.767471    0.982962
      9          1           0       -1.275926   -0.968504   -0.781625
     10          1           0       -2.089867    0.428386   -0.061448
 ---------------------------------------------------------------------
 Rotational constants (GHZ):     34.5225241      9.2894195      8.2044410
 Leave Link  202 at Thu Mar 19 18:42:18 2026, MaxMem=   536870912 cpu:         0.0
 (Enter C:\G09W\l601.exe)
 Copying SCF densities to generalized density rwf, IOpCl= 0 IROHF=0.

 **********************************************************************

            Population analysis using the SCF density.

 **********************************************************************

 Orbital symmetries:
       Occupied  (A) (A) (A) (A) (A) (A) (A) (A) (A) (A) (A) (A)
                 (A)
       Virtual   (A) (A) (A) (A) (A) (A) (A) (A) (A) (A) (A) (A)
                 (A) (A) (A) (A) (A) (A) (A) (A) (A) (A) (A) (A)
                 (A) (A) (A) (A) (A) (A) (A) (A) (A) (A) (A) (A)
                 (A) (A) (A) (A) (A) (A) (A) (A) (A) (A)
 The electronic state is 1-A.
 Alpha  occ. eigenvalues --  -14.31369 -10.19713 -10.19712  -0.89176  -0.69487
 Alpha  occ. eigenvalues --   -0.62293  -0.48336  -0.43575  -0.43001  -0.38241
 Alpha  occ. eigenvalues --   -0.36087  -0.35780  -0.21512
 Alpha virt. eigenvalues --    0.08676   0.13294   0.15139   0.15610   0.17099
 Alpha virt. eigenvalues --    0.18883   0.19295   0.21160   0.26811   0.52154
 Alpha virt. eigenvalues --    0.53460   0.58002   0.58854   0.59142   0.73167
 Alpha virt. eigenvalues --    0.75116   0.81605   0.82875   0.85640   0.89774
 Alpha virt. eigenvalues --    0.91980   0.93051   0.95248   0.97716   0.97787
 Alpha virt. eigenvalues --    1.02846   1.37897   1.39518   1.46923   1.52428
 Alpha virt. eigenvalues --    1.81817   1.87808   2.00188   2.04456   2.05775
 Alpha virt. eigenvalues --    2.11855   2.21606   2.23908   2.32695   2.44378
 Alpha virt. eigenvalues --    2.49215   2.63611   2.75182   3.87645   4.23310
 Alpha virt. eigenvalues --    4.29162
          Condensed to atoms (all electrons):
               1          2          3          4          5          6
     1  C    4.950329   0.336758  -0.061120   0.382642   0.357613   0.380301
     2  N    0.336758   6.791167   0.336758  -0.043414  -0.050757  -0.033505
     3  C   -0.061120   0.336758   4.950329  -0.003417  -0.005806   0.005713
     4  H    0.382642  -0.043414  -0.003417   0.576440  -0.048385  -0.026023
     5  H    0.357613  -0.050757  -0.005806  -0.048385   0.662541  -0.039453
     6  H    0.380301  -0.033505   0.005713  -0.026023  -0.039453   0.569706
     7  H   -0.043072   0.314260  -0.043072   0.006541  -0.004438  -0.003615
     8  H   -0.005806  -0.050757   0.357613  -0.002012   0.014306  -0.000212
     9  H   -0.003417  -0.043414   0.382642   0.006902  -0.002012   0.000030
    10  H    0.005713  -0.033505   0.380301   0.000030  -0.000212  -0.000246
               7          8          9         10
     1  C   -0.043072  -0.005806  -0.003417   0.005713
     2  N    0.314260  -0.050757  -0.043414  -0.033505
     3  C   -0.043072   0.357613   0.382642   0.380301
     4  H    0.006541  -0.002012   0.006902   0.000030
     5  H   -0.004438   0.014306  -0.002012  -0.000212
     6  H   -0.003615  -0.000212   0.000030  -0.000246
     7  H    0.480641  -0.004438   0.006541  -0.003615
     8  H   -0.004438   0.662541  -0.048385  -0.039453
     9  H    0.006541  -0.048385   0.576440  -0.026023
    10  H   -0.003615  -0.039453  -0.026023   0.569706
 Mulliken charges:
               1
     1  C   -0.299941
     2  N   -0.523590
     3  C   -0.299941
     4  H    0.150696
     5  H    0.116602
     6  H    0.147305
     7  H    0.294267
     8  H    0.116602
     9  H    0.150696
    10  H    0.147305
 Sum of Mulliken charges =   0.00000
 Mulliken charges with hydrogens summed into heavy atoms:
               1
     1  C    0.114662
     2  N   -0.229323
     3  C    0.114662
 Electronic spatial extent (au):  <R**2>=            204.5716
 Charge=              0.0000 electrons
 Dipole moment (field-independent basis, Debye):
    X=              0.0000    Y=             -0.1514    Z=              1.0162  Tot=              1.0274
 Quadrupole moment (field-independent basis, Debye-Ang):
   XX=            -19.5703   YY=            -20.2263   ZZ=            -21.5175
   XY=              0.0000   XZ=              0.0000   YZ=              2.0334
 Traceless Quadrupole moment (field-independent basis, Debye-Ang):
   XX=              0.8677   YY=              0.2118   ZZ=             -1.0795
   XY=              0.0000   XZ=              0.0000   YZ=              2.0334
 Octapole moment (field-independent basis, Debye-Ang**2):
  XXX=              0.0000  YYY=              3.0965  ZZZ=              0.6842  XYY=              0.0000
  XXY=              1.8126  XXZ=             -0.7163  XZZ=              0.0000  YZZ=             -0.4551
  YYZ=              1.5165  XYZ=              0.0000
 Hexadecapole moment (field-independent basis, Debye-Ang**3):
 XXXX=           -177.5140 YYYY=            -54.5008 ZZZZ=            -37.9850 XXXY=              0.0000
 XXXZ=              0.0000 YYYX=              0.0000 YYYZ=              4.2239 ZZZX=              0.0000
 ZZZY=              2.1960 XXYY=            -38.6589 XXZZ=            -37.3617 YYZZ=            -15.0897
 XXYZ=              0.5730 YYXZ=              0.0000 ZZXY=              0.0000
 N-N= 8.396685859998D+01 E-N=-4.810595319395D+02  KE= 1.338207099791D+02
 No NMR shielding tensors so no spin-rotation constants.
 Leave Link  601 at Thu Mar 19 18:42:18 2026, MaxMem=   536870912 cpu:         0.0
 (Enter C:\G09W\l9999.exe)
 1|1|UNPC-DESKTOP-GS7R1K3|FOpt|RB3LYP|6-31G(d)|C2H7N1|1172|19-Mar-2026|
 0||#p opt B3LYP/6-31G(d)||dimethylamine||0,1|C,-1.2075551199,-0.055940
 011,0.1556019573|N,0.0572286741,-0.6867037949,-0.198629698|C,1.1622683
 04,0.2611387971,-0.2578148759|H,-1.5036053304,0.6350429453,-0.64338505
 14|H,-1.182474741,0.5225671244,1.0997179812|H,-1.988065805,-0.81930885
 91,0.2412703774|H,0.2732559669,-1.4077265293,0.4866967748|H,1.30604687
 47,0.8555275765,0.6655941909|H,0.9887248527,0.9685130046,-1.0781732335
 |H,2.0941743124,-0.2731112551,-0.4708784208||Version=EM64W-G09RevD.01|
 State=1-A|HF=-135.1628503|RMSD=3.318e-009|RMSF=4.601e-005|Dipole=0.057
 9238,0.0785358,0.3922703|Quadrupole=0.6648945,0.0169804,-0.6818749,-0.
 1828265,-0.0268121,-1.5297711|PG=C01 [X(C2H7N1)]||@


 GARLIC THEN HAVE POWER TO SAVE FROM DEATH
 BEAR WITH IT THOUGH IT MAKETH UNSAVORY BREATH,
 AND SCORN NOT GARLIC LIKE SOME THAT THINK
 IT ONLY MAKETH MEN WINK AND DRINK AND STINK.
   --  SIR JOHN HARRINGTON,
       "THE ENGLISHMAN'S DOCTOR", 1609
 Job cpu time:       0 days  0 hours  0 minutes 32.0 seconds.
 File lengths (MBytes):  RWF=      5 Int=      0 D2E=      0 Chk=      1 Scr=      1
 Normal termination of Gaussian 09 at Thu Mar 19 18:42:19 2026.
