 Entering Gaussian System, Link 0=C:\G09W\g09.exe
 Input=1-butanol_rdkit.com
 Output=C:\workspace\delta_chem\data\raw\benchmark_new\1-butanol\1-butanol_rdkit.out
 Initial command:
 C:\G09W\l1.exe ".\Gau-18228.inp" "C:\workspace\delta_chem\data\raw\benchmark_new\1-butanol\1-butanol_rdkit.out" /scrdir=".\"
 Entering Link 1 = C:\G09W\l1.exe PID=       784.
  
 Copyright (c) 1988,1990,1992,1993,1995,1998,2003,2009,2013,
            Gaussian, Inc.  All Rights Reserved.
  
 This is part of the Gaussian(R) 09 program.  It is based on
 the Gaussian(R) 03 system (copyright 2003, Gaussian, Inc.),
 the Gaussian(R) 98 system (copyright 1998, Gaussian, Inc.),
 the Gaussian(R) 94 system (copyright 1995, Gaussian, Inc.),
 the Gaussian 92(TM) system (copyright 1992, Gaussian, Inc.),
 the Gaussian 90(TM) system (copyright 1990, Gaussian, Inc.),
 the Gaussian 88(TM) system (copyright 1988, Gaussian, Inc.),
 the Gaussian 86(TM) system (copyright 1986, Carnegie Mellon
 University), and the Gaussian 82(TM) system (copyright 1983,
 Carnegie Mellon University). Gaussian is a federally registered
 trademark of Gaussian, Inc.
  
 This software contains proprietary and confidential information,
 including trade secrets, belonging to Gaussian, Inc.
  
 This software is provided under written license and may be
 used, copied, transmitted, or stored only in accord with that
 written license.
  
 The following legend is applicable only to US Government
 contracts under FAR:
  
                    RESTRICTED RIGHTS LEGEND
  
 Use, reproduction and disclosure by the US Government is
 subject to restrictions as set forth in subparagraphs (a)
 and (c) of the Commercial Computer Software - Restricted
 Rights clause in FAR 52.227-19.
  
 Gaussian, Inc.
 340 Quinnipiac St., Bldg. 40, Wallingford CT 06492
  
  
 ---------------------------------------------------------------
 Warning -- This program may not be used in any manner that
 competes with the business of Gaussian, Inc. or will provide
 assistance to any competitor of Gaussian, Inc.  The licensee
 of this program is prohibited from giving any competitor of
 Gaussian, Inc. access to this program.  By using this program,
 the user acknowledges that Gaussian, Inc. is engaged in the
 business of creating and licensing software in the field of
 computational chemistry and represents and warrants to the
 licensee that it is not a competitor of Gaussian, Inc. and that
 it will not use this program in any manner prohibited above.
 ---------------------------------------------------------------
  

 Cite this work as:
 Gaussian 09, Revision D.01,
 M. J. Frisch, G. W. Trucks, H. B. Schlegel, G. E. Scuseria, 
 M. A. Robb, J. R. Cheeseman, G. Scalmani, V. Barone, B. Mennucci, 
 G. A. Petersson, H. Nakatsuji, M. Caricato, X. Li, H. P. Hratchian, 
 A. F. Izmaylov, J. Bloino, G. Zheng, J. L. Sonnenberg, M. Hada, 
 M. Ehara, K. Toyota, R. Fukuda, J. Hasegawa, M. Ishida, T. Nakajima, 
 Y. Honda, O. Kitao, H. Nakai, T. Vreven, J. A. Montgomery, Jr., 
 J. E. Peralta, F. Ogliaro, M. Bearpark, J. J. Heyd, E. Brothers, 
 K. N. Kudin, V. N. Staroverov, T. Keith, R. Kobayashi, J. Normand, 
 K. Raghavachari, A. Rendell, J. C. Burant, S. S. Iyengar, J. Tomasi, 
 M. Cossi, N. Rega, J. M. Millam, M. Klene, J. E. Knox, J. B. Cross, 
 V. Bakken, C. Adamo, J. Jaramillo, R. Gomperts, R. E. Stratmann, 
 O. Yazyev, A. J. Austin, R. Cammi, C. Pomelli, J. W. Ochterski, 
 R. L. Martin, K. Morokuma, V. G. Zakrzewski, G. A. Voth, 
 P. Salvador, J. J. Dannenberg, S. Dapprich, A. D. Daniels, 
 O. Farkas, J. B. Foresman, J. V. Ortiz, J. Cioslowski, 
 and D. J. Fox, Gaussian, Inc., Wallingford CT, 2013.
 
 ******************************************
 Gaussian 09:  EM64W-G09RevD.01 13-Apr-2013
                20-Mar-2026 
 ******************************************
 %NProcShared=4
 Will use up to    4 processors via shared memory.
 %Mem=4GB
 %Chk=1-butanol_rdkit.chk
 --------------------------
 #p opt freq B3LYP/6-31G(d)
 --------------------------
 1/14=-1,18=20,19=15,26=3,38=1/1,3;
 2/9=110,12=2,17=6,18=5,40=1/2;
 3/5=1,6=6,7=1,11=2,16=1,25=1,30=1,71=1,74=-5/1,2,3;
 4//1;
 5/5=2,38=5/2;
 6/7=2,8=2,9=2,10=2,28=1/1;
 7//1,2,3,16;
 1/14=-1,18=20,19=15,26=3/3(2);
 2/9=110/2;
 99//99;
 2/9=110/2;
 3/5=1,6=6,7=1,11=2,16=1,25=1,30=1,71=1,74=-5/1,2,3;
 4/5=5,16=3,69=1/1;
 5/5=2,38=5/2;
 7//1,2,3,16;
 1/14=-1,18=20,19=15,26=3/3(-5);
 2/9=110/2;
 6/7=2,8=2,9=2,10=2,19=2,28=1/1;
 99/9=1/99;
 Leave Link    1 at Fri Mar 20 17:24:14 2026, MaxMem=   536870912 cpu:         0.0
 (Enter C:\G09W\l101.exe)
 ---------------
 1-butanol rdkit
 ---------------
 Symbolic Z-matrix:
 Charge =  0 Multiplicity = 1
 C                    -2.0811   -0.28367   0.54435 
 C                    -0.59782  -0.6189    0.53326 
 C                     0.12643   0.08762  -0.61493 
 C                     1.60866  -0.26259  -0.66362 
 O                     2.25583   0.2041    0.51136 
 H                    -2.56086  -0.59528  -0.38896 
 H                    -2.23912   0.79224   0.66991 
 H                    -2.57993  -0.79911   1.37105 
 H                    -0.4757   -1.70407   0.43737 
 H                    -0.15946  -0.32666   1.49427 
 H                    -0.33795  -0.18777  -1.5689 
 H                     0.01442   1.17163  -0.49082 
 H                     2.07821   0.21702  -1.52824 
 H                     1.75349  -1.34495  -0.74065 
 H                     3.1949   -0.03616   0.43453 
 
 NAtoms=     15 NQM=       15 NQMF=       0 NMMI=      0 NMMIF=      0
                NMic=       0 NMicF=      0.
                    Isotopes and Nuclear Properties:
 (Nuclear quadrupole moments (NQMom) in fm**2, nuclear magnetic moments (NMagM)
  in nuclear magnetons)

  Atom         1           2           3           4           5           6           7           8           9          10
 IAtWgt=          12          12          12          12          16           1           1           1           1           1
 AtmWgt=  12.0000000  12.0000000  12.0000000  12.0000000  15.9949146   1.0078250   1.0078250   1.0078250   1.0078250   1.0078250
 NucSpn=           0           0           0           0           0           1           1           1           1           1
 AtZEff=   0.0000000   0.0000000   0.0000000   0.0000000   0.0000000   0.0000000   0.0000000   0.0000000   0.0000000   0.0000000
 NQMom=    0.0000000   0.0000000   0.0000000   0.0000000   0.0000000   0.0000000   0.0000000   0.0000000   0.0000000   0.0000000
 NMagM=    0.0000000   0.0000000   0.0000000   0.0000000   0.0000000   2.7928460   2.7928460   2.7928460   2.7928460   2.7928460
 AtZNuc=   6.0000000   6.0000000   6.0000000   6.0000000   8.0000000   1.0000000   1.0000000   1.0000000   1.0000000   1.0000000

  Atom        11          12          13          14          15
 IAtWgt=           1           1           1           1           1
 AtmWgt=   1.0078250   1.0078250   1.0078250   1.0078250   1.0078250
 NucSpn=           1           1           1           1           1
 AtZEff=   0.0000000   0.0000000   0.0000000   0.0000000   0.0000000
 NQMom=    0.0000000   0.0000000   0.0000000   0.0000000   0.0000000
 NMagM=    2.7928460   2.7928460   2.7928460   2.7928460   2.7928460
 AtZNuc=   1.0000000   1.0000000   1.0000000   1.0000000   1.0000000
 Leave Link  101 at Fri Mar 20 17:24:14 2026, MaxMem=   536870912 cpu:         0.0
 (Enter C:\G09W\l103.exe)

 GradGradGradGradGradGradGradGradGradGradGradGradGradGradGradGradGradGrad
 Berny optimization.
 Initialization pass.
                           ----------------------------
                           !    Initial Parameters    !
                           ! (Angstroms and Degrees)  !
 --------------------------                            --------------------------
 ! Name  Definition              Value          Derivative Info.                !
 --------------------------------------------------------------------------------
 ! R1    R(1,2)                  1.5207         estimate D2E/DX2                !
 ! R2    R(1,6)                  1.0947         estimate D2E/DX2                !
 ! R3    R(1,7)                  1.0947         estimate D2E/DX2                !
 ! R4    R(1,8)                  1.0945         estimate D2E/DX2                !
 ! R5    R(2,3)                  1.5304         estimate D2E/DX2                !
 ! R6    R(2,9)                  1.0962         estimate D2E/DX2                !
 ! R7    R(2,10)                 1.096          estimate D2E/DX2                !
 ! R8    R(3,4)                  1.5238         estimate D2E/DX2                !
 ! R9    R(3,11)                 1.0961         estimate D2E/DX2                !
 ! R10   R(3,12)                 1.0968         estimate D2E/DX2                !
 ! R11   R(4,5)                  1.4203         estimate D2E/DX2                !
 ! R12   R(4,13)                 1.0946         estimate D2E/DX2                !
 ! R13   R(4,14)                 1.0947         estimate D2E/DX2                !
 ! R14   R(5,15)                 0.9724         estimate D2E/DX2                !
 ! A1    A(2,1,6)              111.0083         estimate D2E/DX2                !
 ! A2    A(2,1,7)              110.9956         estimate D2E/DX2                !
 ! A3    A(2,1,8)              110.257          estimate D2E/DX2                !
 ! A4    A(6,1,7)              108.318          estimate D2E/DX2                !
 ! A5    A(6,1,8)              108.0701         estimate D2E/DX2                !
 ! A6    A(7,1,8)              108.0857         estimate D2E/DX2                !
 ! A7    A(1,2,3)              111.4259         estimate D2E/DX2                !
 ! A8    A(1,2,9)              109.1179         estimate D2E/DX2                !
 ! A9    A(1,2,10)             108.9627         estimate D2E/DX2                !
 ! A10   A(3,2,9)              109.7955         estimate D2E/DX2                !
 ! A11   A(3,2,10)             110.2119         estimate D2E/DX2                !
 ! A12   A(9,2,10)             107.2243         estimate D2E/DX2                !
 ! A13   A(2,3,4)              112.2222         estimate D2E/DX2                !
 ! A14   A(2,3,11)             109.6622         estimate D2E/DX2                !
 ! A15   A(2,3,12)             108.8471         estimate D2E/DX2                !
 ! A16   A(4,3,11)             109.059          estimate D2E/DX2                !
 ! A17   A(4,3,12)             109.2743         estimate D2E/DX2                !
 ! A18   A(11,3,12)            107.6685         estimate D2E/DX2                !
 ! A19   A(3,4,5)              109.9548         estimate D2E/DX2                !
 ! A20   A(3,4,13)             109.9871         estimate D2E/DX2                !
 ! A21   A(3,4,14)             110.9879         estimate D2E/DX2                !
 ! A22   A(5,4,13)             108.3029         estimate D2E/DX2                !
 ! A23   A(5,4,14)             108.8326         estimate D2E/DX2                !
 ! A24   A(13,4,14)            108.7165         estimate D2E/DX2                !
 ! A25   A(4,5,15)             107.068          estimate D2E/DX2                !
 ! D1    D(6,1,2,3)             60.2054         estimate D2E/DX2                !
 ! D2    D(6,1,2,9)            -61.1983         estimate D2E/DX2                !
 ! D3    D(6,1,2,10)          -177.9731         estimate D2E/DX2                !
 ! D4    D(7,1,2,3)            -60.3248         estimate D2E/DX2                !
 ! D5    D(7,1,2,9)            178.2714         estimate D2E/DX2                !
 ! D6    D(7,1,2,10)            61.4967         estimate D2E/DX2                !
 ! D7    D(8,1,2,3)            179.9346         estimate D2E/DX2                !
 ! D8    D(8,1,2,9)             58.5308         estimate D2E/DX2                !
 ! D9    D(8,1,2,10)           -58.2439         estimate D2E/DX2                !
 ! D10   D(1,2,3,4)           -178.6064         estimate D2E/DX2                !
 ! D11   D(1,2,3,11)           -57.2366         estimate D2E/DX2                !
 ! D12   D(1,2,3,12)            60.3137         estimate D2E/DX2                !
 ! D13   D(9,2,3,4)            -57.5978         estimate D2E/DX2                !
 ! D14   D(9,2,3,11)            63.7719         estimate D2E/DX2                !
 ! D15   D(9,2,3,12)          -178.6777         estimate D2E/DX2                !
 ! D16   D(10,2,3,4)            60.2987         estimate D2E/DX2                !
 ! D17   D(10,2,3,11)         -178.3316         estimate D2E/DX2                !
 ! D18   D(10,2,3,12)          -60.7812         estimate D2E/DX2                !
 ! D19   D(2,3,4,5)            -63.9288         estimate D2E/DX2                !
 ! D20   D(2,3,4,13)           176.8903         estimate D2E/DX2                !
 ! D21   D(2,3,4,14)            56.5427         estimate D2E/DX2                !
 ! D22   D(11,3,4,5)           174.3562         estimate D2E/DX2                !
 ! D23   D(11,3,4,13)           55.1753         estimate D2E/DX2                !
 ! D24   D(11,3,4,14)          -65.1723         estimate D2E/DX2                !
 ! D25   D(12,3,4,5)            56.905          estimate D2E/DX2                !
 ! D26   D(12,3,4,13)          -62.2759         estimate D2E/DX2                !
 ! D27   D(12,3,4,14)          177.3766         estimate D2E/DX2                !
 ! D28   D(3,4,5,15)          -179.7073         estimate D2E/DX2                !
 ! D29   D(13,4,5,15)          -59.501          estimate D2E/DX2                !
 ! D30   D(14,4,5,15)           58.5279         estimate D2E/DX2                !
 --------------------------------------------------------------------------------
 Trust Radius=3.00D-01 FncErr=1.00D-07 GrdErr=1.00D-06
 Number of steps in this run=     79 maximum allowed number of steps=    100.
 GradGradGradGradGradGradGradGradGradGradGradGradGradGradGradGradGradGrad

 Leave Link  103 at Fri Mar 20 17:24:15 2026, MaxMem=   536870912 cpu:         0.0
 (Enter C:\G09W\l202.exe)
                          Input orientation:                          
 ---------------------------------------------------------------------
 Center     Atomic      Atomic             Coordinates (Angstroms)
 Number     Number       Type             X           Y           Z
 ---------------------------------------------------------------------
      1          6           0       -2.081101   -0.283673    0.544354
      2          6           0       -0.597816   -0.618904    0.533260
      3          6           0        0.126431    0.087618   -0.614932
      4          6           0        1.608655   -0.262592   -0.663615
      5          8           0        2.255825    0.204095    0.511364
      6          1           0       -2.560861   -0.595275   -0.388956
      7          1           0       -2.239123    0.792243    0.669907
      8          1           0       -2.579928   -0.799110    1.371051
      9          1           0       -0.475697   -1.704069    0.437371
     10          1           0       -0.159455   -0.326661    1.494272
     11          1           0       -0.337949   -0.187770   -1.568895
     12          1           0        0.014418    1.171629   -0.490821
     13          1           0        2.078208    0.217022   -1.528242
     14          1           0        1.753491   -1.344948   -0.740647
     15          1           0        3.194902   -0.036157    0.434529
 ---------------------------------------------------------------------
                    Distance matrix (angstroms):
                    1          2          3          4          5
     1  C    0.000000
     2  C    1.520736   0.000000
     3  C    2.520912   1.530376   0.000000
     4  C    3.882516   2.535347   1.523813   0.000000
     5  O    4.364394   2.970029   2.411727   1.420282   0.000000
     6  H    1.094684   2.169006   2.781896   4.191775   4.964880
     7  H    1.094682   2.168847   2.782652   4.206703   4.536035
     8  H    1.094501   2.159430   3.472001   4.687424   5.012982
     9  H    2.146227   1.096217   2.163340   2.763069   3.332833
    10  H    2.144042   1.095952   2.168432   2.790483   2.661088
    11  H    2.741094   2.161588   1.096144   2.148115   3.347940
    12  H    2.753305   2.151646   1.096827   2.151381   2.639015
    13  H    4.673992   3.479895   2.158776   1.094573   2.047366
    14  H    4.181104   2.771033   2.171491   1.094717   2.054119
    15  H    5.282947   3.838496   3.245336   1.942517   0.972363
                    6          7          8          9         10
     6  H    0.000000
     7  H    1.774799   0.000000
     8  H    1.771874   1.772048   0.000000
     9  H    2.502029   3.065178   2.473560   0.000000
    10  H    3.063569   2.501308   2.469227   1.764738   0.000000
    11  H    2.549442   3.096308   3.747464   2.518579   3.071505
    12  H    3.124802   2.563137   3.752467   3.061273   2.493130
    13  H    4.845489   4.878738   5.580023   3.751887   3.799779
    14  H    4.393100   4.743228   4.851363   2.546757   3.113059
    15  H    5.841194   5.501843   5.899816   4.031778   3.529753
                   11         12         13         14         15
    11  H    0.000000
    12  H    1.770416   0.000000
    13  H    2.450168   2.499349   0.000000
    14  H    2.529659   3.069193   1.779184   0.000000
    15  H    4.064201   3.525691   2.272350   2.274124   0.000000
 Stoichiometry    C4H10O
 Framework group  C1[X(C4H10O)]
 Deg. of freedom    39
 Full point group                 C1      NOp   1
 Largest Abelian subgroup         C1      NOp   1
 Largest concise Abelian subgroup C1      NOp   1
                         Standard orientation:                         
 ---------------------------------------------------------------------
 Center     Atomic      Atomic             Coordinates (Angstroms)
 Number     Number       Type             X           Y           Z
 ---------------------------------------------------------------------
      1          6           0        2.389034   -0.137595   -0.122137
      2          6           0        0.955010   -0.368572    0.328264
      3          6           0        0.015643    0.705997   -0.223955
      4          6           0       -1.421305    0.511235    0.244290
      5          8           0       -1.935145   -0.711491   -0.263758
      6          1           0        2.758087    0.832641    0.225387
      7          1           0        2.466399   -0.164199   -1.213758
      8          1           0        3.043668   -0.915087    0.283934
      9          1           0        0.918059   -0.366574    1.423856
     10          1           0        0.632416   -1.361363   -0.005517
     11          1           0        0.363379    1.696831    0.090466
     12          1           0        0.046719    0.674583   -1.319892
     13          1           0       -2.049231    1.328007   -0.125414
     14          1           0       -1.478241    0.491468    1.337347
     15          1           0       -2.850390   -0.790769    0.054883
 ---------------------------------------------------------------------
 Rotational constants (GHZ):     12.7263012      2.3651205      2.1859114
 Leave Link  202 at Fri Mar 20 17:24:15 2026, MaxMem=   536870912 cpu:         0.0
 (Enter C:\G09W\l301.exe)
 Standard basis: 6-31G(d) (6D, 7F)
 Ernie: Thresh=  0.10000D-02 Tol=  0.10000D-05 Strict=F.
 There are    95 symmetry adapted cartesian basis functions of A   symmetry.
 There are    95 symmetry adapted basis functions of A   symmetry.
    95 basis functions,   180 primitive gaussians,    95 cartesian basis functions
    21 alpha electrons       21 beta electrons
       nuclear repulsion energy       188.0344382513 Hartrees.
 IExCor=  402 DFT=T Ex+Corr=B3LYP ExCW=0 ScaHFX=  0.200000
 ScaDFX=  0.800000  0.720000  1.000000  0.810000 ScalE2=  1.000000  1.000000
 IRadAn=      0 IRanWt=     -1 IRanGd=            0 ICorTp=0 IEmpDi=  4
 NAtoms=   15 NActive=   15 NUniq=   15 SFac= 1.00D+00 NAtFMM=   60 NAOKFM=F Big=F
 Integral buffers will be    131072 words long.
 Raffenetti 2 integral format.
 Two-electron integral symmetry is turned on.
 Leave Link  301 at Fri Mar 20 17:24:15 2026, MaxMem=   536870912 cpu:         0.0
 (Enter C:\G09W\l302.exe)
 NPDir=0 NMtPBC=     1 NCelOv=     1 NCel=       1 NClECP=     1 NCelD=      1
         NCelK=      1 NCelE2=     1 NClLst=     1 CellRange=     0.0.
 One-electron integrals computed using PRISM.
 NBasis=    95 RedAO= T EigKep=  4.07D-03  NBF=    95
 NBsUse=    95 1.00D-06 EigRej= -1.00D+00 NBFU=    95
 Precomputing XC quadrature grid using
 IXCGrd= 4 IRadAn=           0 IRanWt=          -1 IRanGd=           0 AccXCQ= 0.00D+00.
 Generated NRdTot=       0 NPtTot=           0 NUsed=           0 NTot=          32
 NSgBfM=    95    95    95    95    95 MxSgAt=    15 MxSgA2=    15.
 Leave Link  302 at Fri Mar 20 17:24:16 2026, MaxMem=   536870912 cpu:         0.0
 (Enter C:\G09W\l303.exe)
 DipDrv:  MaxL=1.
 Leave Link  303 at Fri Mar 20 17:24:16 2026, MaxMem=   536870912 cpu:         0.0
 (Enter C:\G09W\l401.exe)
 ExpMin= 1.61D-01 ExpMax= 5.48D+03 ExpMxC= 8.25D+02 IAcc=1 IRadAn=         1 AccDes= 0.00D+00
 Harris functional with IExCor=  402 and IRadAn=       1 diagonalized for initial guess.
 HarFok:  IExCor=  402 AccDes= 0.00D+00 IRadAn=         1 IDoV= 1 UseB2=F ITyADJ=14
 ICtDFT=  3500011 ScaDFX=  1.000000  1.000000  1.000000  1.000000
 FoFCou: FMM=F IPFlag=           0 FMFlag=      100000 FMFlg1=           0
         NFxFlg=           0 DoJE=T BraDBF=F KetDBF=T FulRan=T
         wScrn=  0.000000 ICntrl=     500 IOpCl=  0 I1Cent=   200000004 NGrid=           0
         NMat0=    1 NMatS0=      1 NMatT0=    0 NMatD0=    1 NMtDS0=    0 NMtDT0=    0
 Petite list used in FoFCou.
 Harris En= -233.723865886960    
 JPrj=0 DoOrth=F DoCkMO=F.
 Leave Link  401 at Fri Mar 20 17:24:17 2026, MaxMem=   536870912 cpu:         0.0
 (Enter C:\G09W\l502.exe)
 Closed shell SCF:
 Using DIIS extrapolation, IDIIS=  1040.
 Integral symmetry usage will be decided dynamically.
 Keep R1 ints in memory in canonical form, NReq=11361312.
 IVT=       46930 IEndB=       46930 NGot=   536870912 MDV=   526424903
 LenX=   526424903 LenY=   526415437
 Requested convergence on RMS density matrix=1.00D-08 within 128 cycles.
 Requested convergence on MAX density matrix=1.00D-06.
 Requested convergence on             energy=1.00D-06.
 No special actions if energy rises.
 FoFCou: FMM=F IPFlag=           0 FMFlag=           0 FMFlg1=           0
         NFxFlg=           0 DoJE=F BraDBF=F KetDBF=F FulRan=T
         wScrn=  0.000000 ICntrl=     600 IOpCl=  0 I1Cent=           0 NGrid=           0
         NMat0=    1 NMatS0=   4560 NMatT0=    0 NMatD0=    1 NMtDS0=    0 NMtDT0=    0
 Symmetry not used in FoFCou.
 Integral accuracy reduced to 1.0D-05 until final iterations.

 Cycle   1  Pass 0  IDiag  1:
 E= -233.449438000891    
 DIIS: error= 4.08D-02 at cycle   1 NSaved=   1.
 NSaved= 1 IEnMin= 1 EnMin= -233.449438000891     IErMin= 1 ErrMin= 4.08D-02
 ErrMax= 4.08D-02  0.00D+00 EMaxC= 1.00D-01 BMatC= 2.06D-01 BMatP= 2.06D-01
 IDIUse=3 WtCom= 5.92D-01 WtEn= 4.08D-01
 Coeff-Com:  0.100D+01
 Coeff-En:   0.100D+01
 Coeff:      0.100D+01
 Gap=     0.273 Goal=   None    Shift=    0.000
 GapD=    0.273 DampG=1.000 DampE=0.500 DampFc=0.5000 IDamp=-1.
 Damping current iteration by 5.00D-01
 RMSDP=1.10D-02 MaxDP=1.41D-01              OVMax= 1.79D-01

 Cycle   2  Pass 0  IDiag  1:
 E= -233.537927462199     Delta-E=       -0.088489461307 Rises=F Damp=T
 DIIS: error= 8.69D-03 at cycle   2 NSaved=   2.
 NSaved= 2 IEnMin= 2 EnMin= -233.537927462199     IErMin= 2 ErrMin= 8.69D-03
 ErrMax= 8.69D-03  0.00D+00 EMaxC= 1.00D-01 BMatC= 1.10D-02 BMatP= 2.06D-01
 IDIUse=3 WtCom= 9.13D-01 WtEn= 8.69D-02
 Coeff-Com:  0.113D+00 0.887D+00
 Coeff-En:   0.173D+00 0.827D+00
 Coeff:      0.118D+00 0.882D+00
 Gap=     0.340 Goal=   None    Shift=    0.000
 RMSDP=1.70D-03 MaxDP=2.49D-02 DE=-8.85D-02 OVMax= 9.44D-02

 Cycle   3  Pass 0  IDiag  1:
 E= -233.658279149065     Delta-E=       -0.120351686866 Rises=F Damp=F
 DIIS: error= 5.46D-03 at cycle   3 NSaved=   3.
 NSaved= 3 IEnMin= 3 EnMin= -233.658279149065     IErMin= 3 ErrMin= 5.46D-03
 ErrMax= 5.46D-03  0.00D+00 EMaxC= 1.00D-01 BMatC= 2.34D-03 BMatP= 1.10D-02
 IDIUse=3 WtCom= 9.45D-01 WtEn= 5.46D-02
 Coeff-Com:  0.167D-01 0.283D+00 0.700D+00
 Coeff-En:   0.000D+00 0.000D+00 0.100D+01
 Coeff:      0.158D-01 0.268D+00 0.717D+00
 Gap=     0.329 Goal=   None    Shift=    0.000
 RMSDP=6.67D-04 MaxDP=1.42D-02 DE=-1.20D-01 OVMax= 1.34D-02

 Cycle   4  Pass 0  IDiag  1:
 E= -233.659312823903     Delta-E=       -0.001033674839 Rises=F Damp=F
 DIIS: error= 3.28D-03 at cycle   4 NSaved=   4.
 NSaved= 4 IEnMin= 4 EnMin= -233.659312823903     IErMin= 4 ErrMin= 3.28D-03
 ErrMax= 3.28D-03  0.00D+00 EMaxC= 1.00D-01 BMatC= 1.07D-03 BMatP= 2.34D-03
 IDIUse=3 WtCom= 9.67D-01 WtEn= 3.28D-02
 Coeff-Com: -0.259D-03 0.531D-01 0.409D+00 0.538D+00
 Coeff-En:   0.000D+00 0.000D+00 0.318D+00 0.682D+00
 Coeff:     -0.251D-03 0.513D-01 0.406D+00 0.543D+00
 Gap=     0.333 Goal=   None    Shift=    0.000
 RMSDP=2.92D-04 MaxDP=6.50D-03 DE=-1.03D-03 OVMax= 5.57D-03

 Cycle   5  Pass 0  IDiag  1:
 E= -233.660144405541     Delta-E=       -0.000831581638 Rises=F Damp=F
 DIIS: error= 3.31D-04 at cycle   5 NSaved=   5.
 NSaved= 5 IEnMin= 5 EnMin= -233.660144405541     IErMin= 5 ErrMin= 3.31D-04
 ErrMax= 3.31D-04  0.00D+00 EMaxC= 1.00D-01 BMatC= 1.61D-05 BMatP= 1.07D-03
 IDIUse=3 WtCom= 9.97D-01 WtEn= 3.31D-03
 Coeff-Com: -0.351D-03 0.164D-02 0.100D+00 0.187D+00 0.712D+00
 Coeff-En:   0.000D+00 0.000D+00 0.000D+00 0.000D+00 0.100D+01
 Coeff:     -0.350D-03 0.164D-02 0.999D-01 0.186D+00 0.713D+00
 Gap=     0.332 Goal=   None    Shift=    0.000
 RMSDP=4.66D-05 MaxDP=5.86D-04 DE=-8.32D-04 OVMax= 7.98D-04

 Cycle   6  Pass 0  IDiag  1:
 E= -233.660157190039     Delta-E=       -0.000012784498 Rises=F Damp=F
 DIIS: error= 6.98D-05 at cycle   6 NSaved=   6.
 NSaved= 6 IEnMin= 6 EnMin= -233.660157190039     IErMin= 6 ErrMin= 6.98D-05
 ErrMax= 6.98D-05  0.00D+00 EMaxC= 1.00D-01 BMatC= 1.18D-06 BMatP= 1.61D-05
 IDIUse=1 WtCom= 1.00D+00 WtEn= 0.00D+00
 Coeff-Com: -0.967D-04-0.721D-03 0.388D-01 0.784D-01 0.353D+00 0.531D+00
 Coeff:     -0.967D-04-0.721D-03 0.388D-01 0.784D-01 0.353D+00 0.531D+00
 Gap=     0.332 Goal=   None    Shift=    0.000
 RMSDP=1.05D-05 MaxDP=2.10D-04 DE=-1.28D-05 OVMax= 2.17D-04

 Cycle   7  Pass 0  IDiag  1:
 E= -233.660158269989     Delta-E=       -0.000001079949 Rises=F Damp=F
 DIIS: error= 9.80D-06 at cycle   7 NSaved=   7.
 NSaved= 7 IEnMin= 7 EnMin= -233.660158269989     IErMin= 7 ErrMin= 9.80D-06
 ErrMax= 9.80D-06  0.00D+00 EMaxC= 1.00D-01 BMatC= 2.38D-08 BMatP= 1.18D-06
 IDIUse=1 WtCom= 1.00D+00 WtEn= 0.00D+00
 Coeff-Com:  0.271D-04-0.410D-03 0.577D-02 0.130D-01 0.674D-01 0.171D+00
 Coeff-Com:  0.743D+00
 Coeff:      0.271D-04-0.410D-03 0.577D-02 0.130D-01 0.674D-01 0.171D+00
 Coeff:      0.743D+00
 Gap=     0.332 Goal=   None    Shift=    0.000
 RMSDP=1.81D-06 MaxDP=2.83D-05 DE=-1.08D-06 OVMax= 3.18D-05

 Initial convergence to 1.0D-05 achieved.  Increase integral accuracy.
 Cycle   8  Pass 1  IDiag  1:
 E= -233.660130674147     Delta-E=        0.000027595841 Rises=F Damp=F
 DIIS: error= 6.72D-06 at cycle   1 NSaved=   1.
 NSaved= 1 IEnMin= 1 EnMin= -233.660130674147     IErMin= 1 ErrMin= 6.72D-06
 ErrMax= 6.72D-06  0.00D+00 EMaxC= 1.00D-01 BMatC= 1.37D-08 BMatP= 1.37D-08
 IDIUse=1 WtCom= 1.00D+00 WtEn= 0.00D+00
 Coeff-Com:  0.100D+01
 Coeff:      0.100D+01
 Gap=     0.332 Goal=   None    Shift=    0.000
 RMSDP=1.81D-06 MaxDP=2.83D-05 DE= 2.76D-05 OVMax= 3.35D-05

 Cycle   9  Pass 1  IDiag  1:
 E= -233.660130691768     Delta-E=       -0.000000017621 Rises=F Damp=F
 DIIS: error= 2.05D-06 at cycle   2 NSaved=   2.
 NSaved= 2 IEnMin= 2 EnMin= -233.660130691768     IErMin= 2 ErrMin= 2.05D-06
 ErrMax= 2.05D-06  0.00D+00 EMaxC= 1.00D-01 BMatC= 7.20D-10 BMatP= 1.37D-08
 IDIUse=1 WtCom= 1.00D+00 WtEn= 0.00D+00
 Coeff-Com:  0.623D-01 0.938D+00
 Coeff:      0.623D-01 0.938D+00
 Gap=     0.332 Goal=   None    Shift=    0.000
 RMSDP=5.57D-07 MaxDP=9.40D-06 DE=-1.76D-08 OVMax= 9.84D-06

 Cycle  10  Pass 1  IDiag  1:
 E= -233.660130691987     Delta-E=       -0.000000000219 Rises=F Damp=F
 DIIS: error= 2.20D-06 at cycle   3 NSaved=   3.
 NSaved= 3 IEnMin= 3 EnMin= -233.660130691987     IErMin= 2 ErrMin= 2.05D-06
 ErrMax= 2.20D-06  0.00D+00 EMaxC= 1.00D-01 BMatC= 5.87D-10 BMatP= 7.20D-10
 IDIUse=1 WtCom= 1.00D+00 WtEn= 0.00D+00
 Coeff-Com: -0.167D-01 0.475D+00 0.542D+00
 Coeff:     -0.167D-01 0.475D+00 0.542D+00
 Gap=     0.332 Goal=   None    Shift=    0.000
 RMSDP=2.33D-07 MaxDP=5.18D-06 DE=-2.19D-10 OVMax= 4.54D-06

 Cycle  11  Pass 1  IDiag  1:
 E= -233.660130692508     Delta-E=       -0.000000000521 Rises=F Damp=F
 DIIS: error= 3.43D-07 at cycle   4 NSaved=   4.
 NSaved= 4 IEnMin= 4 EnMin= -233.660130692508     IErMin= 4 ErrMin= 3.43D-07
 ErrMax= 3.43D-07  0.00D+00 EMaxC= 1.00D-01 BMatC= 1.90D-11 BMatP= 5.87D-10
 IDIUse=1 WtCom= 1.00D+00 WtEn= 0.00D+00
 Coeff-Com: -0.988D-02 0.178D+00 0.248D+00 0.584D+00
 Coeff:     -0.988D-02 0.178D+00 0.248D+00 0.584D+00
 Gap=     0.332 Goal=   None    Shift=    0.000
 RMSDP=5.37D-08 MaxDP=9.11D-07 DE=-5.21D-10 OVMax= 8.97D-07

 Cycle  12  Pass 1  IDiag  1:
 E= -233.660130692518     Delta-E=       -0.000000000009 Rises=F Damp=F
 DIIS: error= 1.32D-07 at cycle   5 NSaved=   5.
 NSaved= 5 IEnMin= 5 EnMin= -233.660130692518     IErMin= 5 ErrMin= 1.32D-07
 ErrMax= 1.32D-07  0.00D+00 EMaxC= 1.00D-01 BMatC= 1.28D-12 BMatP= 1.90D-11
 IDIUse=1 WtCom= 1.00D+00 WtEn= 0.00D+00
 Coeff-Com: -0.315D-02 0.473D-01 0.723D-01 0.257D+00 0.627D+00
 Coeff:     -0.315D-02 0.473D-01 0.723D-01 0.257D+00 0.627D+00
 Gap=     0.332 Goal=   None    Shift=    0.000
 RMSDP=1.30D-08 MaxDP=2.87D-07 DE=-9.49D-12 OVMax= 2.75D-07

 Cycle  13  Pass 1  IDiag  1:
 E= -233.660130692523     Delta-E=       -0.000000000006 Rises=F Damp=F
 DIIS: error= 4.08D-08 at cycle   6 NSaved=   6.
 NSaved= 6 IEnMin= 6 EnMin= -233.660130692523     IErMin= 6 ErrMin= 4.08D-08
 ErrMax= 4.08D-08  0.00D+00 EMaxC= 1.00D-01 BMatC= 1.85D-13 BMatP= 1.28D-12
 IDIUse=1 WtCom= 1.00D+00 WtEn= 0.00D+00
 Coeff-Com: -0.414D-03 0.185D-02 0.552D-02 0.556D-01 0.312D+00 0.626D+00
 Coeff:     -0.414D-03 0.185D-02 0.552D-02 0.556D-01 0.312D+00 0.626D+00
 Gap=     0.332 Goal=   None    Shift=    0.000
 RMSDP=4.13D-09 MaxDP=8.37D-08 DE=-5.74D-12 OVMax= 8.60D-08

 SCF Done:  E(RB3LYP) =  -233.660130693     A.U. after   13 cycles
            NFock= 13  Conv=0.41D-08     -V/T= 2.0092
 KE= 2.315239973936D+02 PE=-9.196579695839D+02 EE= 2.664394032465D+02
 Leave Link  502 at Fri Mar 20 17:24:25 2026, MaxMem=   536870912 cpu:         8.0
 (Enter C:\G09W\l601.exe)
 Copying SCF densities to generalized density rwf, IOpCl= 0 IROHF=0.

 **********************************************************************

            Population analysis using the SCF density.

 **********************************************************************

 Orbital symmetries:
       Occupied  (A) (A) (A) (A) (A) (A) (A) (A) (A) (A) (A) (A)
                 (A) (A) (A) (A) (A) (A) (A) (A) (A)
       Virtual   (A) (A) (A) (A) (A) (A) (A) (A) (A) (A) (A) (A)
                 (A) (A) (A) (A) (A) (A) (A) (A) (A) (A) (A) (A)
                 (A) (A) (A) (A) (A) (A) (A) (A) (A) (A) (A) (A)
                 (A) (A) (A) (A) (A) (A) (A) (A) (A) (A) (A) (A)
                 (A) (A) (A) (A) (A) (A) (A) (A) (A) (A) (A) (A)
                 (A) (A) (A) (A) (A) (A) (A) (A) (A) (A) (A) (A)
                 (A) (A)
 The electronic state is 1-A.
 Alpha  occ. eigenvalues --  -19.13533 -10.22299 -10.17507 -10.16989 -10.16564
 Alpha  occ. eigenvalues --   -1.00930  -0.78626  -0.71299  -0.61919  -0.56991
 Alpha  occ. eigenvalues --   -0.51076  -0.45810  -0.43817  -0.42372  -0.38250
 Alpha  occ. eigenvalues --   -0.37327  -0.34951  -0.33074  -0.32176  -0.30845
 Alpha  occ. eigenvalues --   -0.25823
 Alpha virt. eigenvalues --    0.07391   0.10690   0.13043   0.13986   0.15592
 Alpha virt. eigenvalues --    0.17484   0.18663   0.18995   0.19886   0.20002
 Alpha virt. eigenvalues --    0.22303   0.25962   0.26156   0.26750   0.51171
 Alpha virt. eigenvalues --    0.52237   0.54511   0.56040   0.57529   0.62002
 Alpha virt. eigenvalues --    0.65159   0.67148   0.69620   0.74816   0.78180
 Alpha virt. eigenvalues --    0.82113   0.85615   0.86564   0.88403   0.89307
 Alpha virt. eigenvalues --    0.91846   0.92641   0.94206   0.95738   0.97758
 Alpha virt. eigenvalues --    1.00063   1.00096   1.02138   1.06245   1.23234
 Alpha virt. eigenvalues --    1.27772   1.42419   1.43423   1.44937   1.58386
 Alpha virt. eigenvalues --    1.62403   1.69888   1.75632   1.76065   1.83680
 Alpha virt. eigenvalues --    1.88423   1.92309   1.96787   1.99688   2.04327
 Alpha virt. eigenvalues --    2.07500   2.14618   2.22584   2.28177   2.30210
 Alpha virt. eigenvalues --    2.35697   2.38267   2.42350   2.43865   2.49381
 Alpha virt. eigenvalues --    2.59380   2.70040   2.74161   2.86847   3.73922
 Alpha virt. eigenvalues --    4.14941   4.27605   4.38375   4.52927
          Condensed to atoms (all electrons):
               1          2          3          4          5          6
     1  C    5.067977   0.376409  -0.048019   0.004322   0.000097   0.376279
     2  C    0.376409   4.954581   0.382385  -0.037598   0.000466  -0.035712
     3  C   -0.048019   0.382385   5.024151   0.377103  -0.053810  -0.004910
     4  C    0.004322  -0.037598   0.377103   4.809731   0.245430  -0.000010
     5  O    0.000097   0.000466  -0.053810   0.245430   8.267855  -0.000002
     6  H    0.376279  -0.035712  -0.004910  -0.000010  -0.000002   0.586314
     7  H    0.378660  -0.035535  -0.005105   0.000087   0.000000  -0.032776
     8  H    0.372605  -0.030390   0.004734  -0.000176   0.000002  -0.031193
     9  H   -0.040437   0.375848  -0.042512  -0.003123  -0.000422  -0.004775
    10  H   -0.039192   0.383323  -0.037231  -0.006064   0.008251   0.005223
    11  H   -0.003970  -0.039417   0.363078  -0.032840   0.002867   0.005306
    12  H   -0.003562  -0.042796   0.367381  -0.033000   0.001965  -0.000352
    13  H   -0.000144   0.006261  -0.039183   0.365229  -0.041912  -0.000006
    14  H    0.000014  -0.011727  -0.038740   0.362110  -0.043326   0.000007
    15  H    0.000001   0.000114   0.006976  -0.022745   0.232814   0.000000
               7          8          9         10         11         12
     1  C    0.378660   0.372605  -0.040437  -0.039192  -0.003970  -0.003562
     2  C   -0.035535  -0.030390   0.375848   0.383323  -0.039417  -0.042796
     3  C   -0.005105   0.004734  -0.042512  -0.037231   0.363078   0.367381
     4  C    0.000087  -0.000176  -0.003123  -0.006064  -0.032840  -0.033000
     5  O    0.000000   0.000002  -0.000422   0.008251   0.002867   0.001965
     6  H   -0.032776  -0.031193  -0.004775   0.005223   0.005306  -0.000352
     7  H    0.577903  -0.030621   0.005583  -0.004616  -0.000439   0.005079
     8  H   -0.030621   0.580740  -0.003057  -0.002521  -0.000002  -0.000046
     9  H    0.005583  -0.003057   0.617792  -0.036532  -0.004774   0.005961
    10  H   -0.004616  -0.002521  -0.036532   0.571647   0.005610  -0.004838
    11  H   -0.000439  -0.000002  -0.004774   0.005610   0.610701  -0.034013
    12  H    0.005079  -0.000046   0.005961  -0.004838  -0.034013   0.594509
    13  H    0.000004   0.000003  -0.000055   0.000213  -0.000852  -0.006050
    14  H    0.000007  -0.000001   0.006118   0.000073   0.000010   0.006583
    15  H    0.000000   0.000000  -0.000035  -0.000345  -0.000294  -0.000103
              13         14         15
     1  C   -0.000144   0.000014   0.000001
     2  C    0.006261  -0.011727   0.000114
     3  C   -0.039183  -0.038740   0.006976
     4  C    0.365229   0.362110  -0.022745
     5  O   -0.041912  -0.043326   0.232814
     6  H   -0.000006   0.000007   0.000000
     7  H    0.000004   0.000007   0.000000
     8  H    0.000003  -0.000001   0.000000
     9  H   -0.000055   0.006118  -0.000035
    10  H    0.000213   0.000073  -0.000345
    11  H   -0.000852   0.000010  -0.000294
    12  H   -0.006050   0.006583  -0.000103
    13  H    0.662279  -0.056589  -0.004469
    14  H   -0.056589   0.664864  -0.004616
    15  H   -0.004469  -0.004616   0.402940
 Mulliken charges:
               1
     1  C   -0.441040
     2  C   -0.246211
     3  C   -0.256299
     4  C   -0.028456
     5  O   -0.620276
     6  H    0.136608
     7  H    0.141769
     8  H    0.139925
     9  H    0.124421
    10  H    0.156999
    11  H    0.129031
    12  H    0.143281
    13  H    0.115272
    14  H    0.115213
    15  H    0.389762
 Sum of Mulliken charges =   0.00000
 Mulliken charges with hydrogens summed into heavy atoms:
               1
     1  C   -0.022738
     2  C    0.035209
     3  C    0.016014
     4  C    0.202029
     5  O   -0.230514
 Electronic spatial extent (au):  <R**2>=            602.0843
 Charge=              0.0000 electrons
 Dipole moment (field-independent basis, Debye):
    X=             -0.9032    Y=              0.8533    Z=              0.8676  Tot=              1.5154
 Quadrupole moment (field-independent basis, Debye-Ang):
   XX=            -28.1915   YY=            -33.5404   ZZ=            -33.2489
   XY=             -0.4330   XZ=             -1.8905   YZ=             -0.5388
 Traceless Quadrupole moment (field-independent basis, Debye-Ang):
   XX=              3.4688   YY=             -1.8801   ZZ=             -1.5887
   XY=             -0.4330   XZ=             -1.8905   YZ=             -0.5388
 Octapole moment (field-independent basis, Debye-Ang**2):
  XXX=            -36.3717  YYY=             -2.6180  ZZZ=             -0.9630  XYY=             -2.6145
  XXY=             -4.8405  XXZ=              4.5299  XZZ=             -2.1506  YZZ=             -0.7407
  YYZ=              0.3299  XYZ=              1.6686
 Hexadecapole moment (field-independent basis, Debye-Ang**3):
 XXXX=           -515.4731 YYYY=           -118.5226 ZZZZ=            -72.4480 XXXY=             23.2443
 XXXZ=             -4.8524 YYYX=              7.0677 YYYZ=              1.2363 ZZZX=             -0.5091
 ZZZY=              0.2032 XXYY=           -112.7515 XXZZ=           -112.4400 YYZZ=            -33.5148
 XXYZ=             -3.4332 YYXZ=              1.1495 ZZXY=              1.4674
 N-N= 1.880344382513D+02 E-N=-9.196579725067D+02  KE= 2.315239973936D+02
 No NMR shielding tensors so no spin-rotation constants.
 Leave Link  601 at Fri Mar 20 17:24:25 2026, MaxMem=   536870912 cpu:         0.0
 (Enter C:\G09W\l701.exe)
 Compute integral first derivatives.
 ... and contract with generalized density number  0.
 Leave Link  701 at Fri Mar 20 17:24:25 2026, MaxMem=   536870912 cpu:         0.0
 (Enter C:\G09W\l702.exe)
 L702 exits ... SP integral derivatives will be done elsewhere.
 Leave Link  702 at Fri Mar 20 17:24:25 2026, MaxMem=   536870912 cpu:         0.0
 (Enter C:\G09W\l703.exe)
 Compute integral first derivatives, UseDBF=F ICtDFT=           0.
 Integral derivatives from FoFJK, PRISM(SPDF).
 Calling FoFJK, ICntrl=      2127 FMM=F ISym2X=0 I1Cent= 0 IOpClX= 0 NMat=1 NMatS=1 NMatT=0.
 FoFJK:  IHMeth= 1 ICntrl=    2127 DoSepK=F KAlg= 0 I1Cent=   0 FoldK=F
 IRaf=         0 NMat=   1 IRICut=       1 DoRegI=T DoRafI=F ISym2E= 0.
 FoFCou: FMM=F IPFlag=           0 FMFlag=      100000 FMFlg1=         800
         NFxFlg=           0 DoJE=F BraDBF=F KetDBF=F FulRan=T
         wScrn=  0.000000 ICntrl=    2127 IOpCl=  0 I1Cent=           0 NGrid=           0
         NMat0=    1 NMatS0=      1 NMatT0=    0 NMatD0=    1 NMtDS0=    0 NMtDT0=    0
 Symmetry not used in FoFCou.
 Leave Link  703 at Fri Mar 20 17:24:27 2026, MaxMem=   536870912 cpu:         1.0
 (Enter C:\G09W\l716.exe)
 Dipole        =-3.55363214D-01 3.35708470D-01 3.41320503D-01
 ***** Axes restored to original set *****
 -------------------------------------------------------------------
 Center     Atomic                   Forces (Hartrees/Bohr)
 Number     Number              X              Y              Z
 -------------------------------------------------------------------
      1        6          -0.003120833   -0.002287790    0.003124432
      2        6          -0.002401886    0.002597540   -0.000474393
      3        6           0.005802973   -0.004194369    0.008333519
      4        6           0.004098891    0.005586223   -0.001883190
      5        8           0.002285542    0.002723868    0.007794076
      6        1          -0.002019286    0.000430060   -0.001077904
      7        1          -0.001406875    0.001205505   -0.000208160
      8        1          -0.002895873    0.000523020    0.000334169
      9        1           0.001840935   -0.001842580    0.000144811
     10        1           0.002984542   -0.000751421   -0.001328519
     11        1           0.000452587    0.000046367   -0.001840901
     12        1           0.001264917    0.001092167   -0.001998026
     13        1          -0.000342686   -0.001099574   -0.007542258
     14        1          -0.002964383   -0.005230308   -0.004742894
     15        1          -0.003578566    0.001201291    0.001365236
 -------------------------------------------------------------------
 Cartesian Forces:  Max     0.008333519 RMS     0.003204838
 Leave Link  716 at Fri Mar 20 17:24:28 2026, MaxMem=   536870912 cpu:         1.0
 (Enter C:\G09W\l103.exe)

 GradGradGradGradGradGradGradGradGradGradGradGradGradGradGradGradGradGrad
 Berny optimization.
 FormGI is forming the generalized inverse of G from B-inverse, IUseBI=4.
 Internal  Forces:  Max     0.009199552 RMS     0.002925731
 Search for a local minimum.
 Step number   1 out of a maximum of   79
 All quantities printed in internal units (Hartrees-Bohrs-Radians)
 RMS Force = .29257D-02 SwitMx=.10000D-02 MixMth= 1
 Mixed Optimization -- RFO/linear search
 Second derivative matrix not updated -- first step.
 ITU=  0
     Eigenvalues ---    0.00364   0.00451   0.00492   0.01423   0.03646
     Eigenvalues ---    0.03715   0.04905   0.04916   0.05163   0.05604
     Eigenvalues ---    0.05700   0.05791   0.08151   0.08246   0.11470
     Eigenvalues ---    0.12056   0.12133   0.13786   0.16000   0.16000
     Eigenvalues ---    0.16000   0.16000   0.21904   0.21942   0.22036
     Eigenvalues ---    0.29389   0.30002   0.30296   0.34035   0.34104
     Eigenvalues ---    0.34112   0.34134   0.34273   0.34277   0.34277
     Eigenvalues ---    0.34290   0.34298   0.42418   0.52897
 RFO step:  Lambda=-3.12193358D-03 EMin= 3.64125914D-03
 Linear search not attempted -- first point.
 Iteration  1 RMS(Cart)=  0.03301911 RMS(Int)=  0.00059227
 Iteration  2 RMS(Cart)=  0.00067058 RMS(Int)=  0.00031808
 Iteration  3 RMS(Cart)=  0.00000023 RMS(Int)=  0.00031808
 ITry= 1 IFail=0 DXMaxC= 1.21D-01 DCOld= 1.00D+10 DXMaxT= 3.00D-01 DXLimC= 3.00D+00 Rises=F
 Variable       Old X    -DE/DX   Delta X   Delta X   Delta X     New X
                                 (Linear)    (Quad)   (Total)
    R1        2.87377   0.00920   0.00000   0.03006   0.03006   2.90383
    R2        2.06865   0.00168   0.00000   0.00486   0.00486   2.07351
    R3        2.06865   0.00137   0.00000   0.00395   0.00395   2.07260
    R4        2.06831   0.00132   0.00000   0.00383   0.00383   2.07213
    R5        2.89199   0.00376   0.00000   0.01267   0.01267   2.90466
    R6        2.07155   0.00202   0.00000   0.00586   0.00586   2.07741
    R7        2.07105  -0.00017   0.00000  -0.00050  -0.00050   2.07055
    R8        2.87959  -0.00106   0.00000  -0.00349  -0.00349   2.87610
    R9        2.07141   0.00140   0.00000   0.00406   0.00406   2.07548
   R10        2.07270   0.00072   0.00000   0.00211   0.00211   2.07481
   R11        2.68394   0.00828   0.00000   0.01937   0.01937   2.70332
   R12        2.06844   0.00533   0.00000   0.01540   0.01540   2.08384
   R13        2.06872   0.00511   0.00000   0.01479   0.01479   2.08350
   R14        1.83750  -0.00386   0.00000  -0.00726  -0.00726   1.83025
    A1        1.93746   0.00131   0.00000   0.00721   0.00714   1.94460
    A2        1.93724   0.00068   0.00000   0.00251   0.00248   1.93972
    A3        1.92435   0.00339   0.00000   0.02322   0.02309   1.94744
    A4        1.89051  -0.00161   0.00000  -0.01447  -0.01446   1.87605
    A5        1.88618  -0.00206   0.00000  -0.00941  -0.00956   1.87662
    A6        1.88645  -0.00195   0.00000  -0.01044  -0.01051   1.87594
    A7        1.94475   0.00540   0.00000   0.02951   0.02948   1.97422
    A8        1.90447  -0.00085   0.00000   0.00691   0.00699   1.91146
    A9        1.90176   0.00045   0.00000   0.01619   0.01645   1.91821
   A10        1.91629  -0.00196   0.00000  -0.01253  -0.01293   1.90336
   A11        1.92356  -0.00347   0.00000  -0.02603  -0.02646   1.89710
   A12        1.87142   0.00026   0.00000  -0.01533  -0.01577   1.85565
   A13        1.95865   0.00541   0.00000   0.02815   0.02812   1.98676
   A14        1.91397  -0.00100   0.00000   0.00194   0.00207   1.91604
   A15        1.89974   0.00004   0.00000   0.01259   0.01271   1.91245
   A16        1.90344  -0.00218   0.00000  -0.01480  -0.01502   1.88842
   A17        1.90720  -0.00289   0.00000  -0.01838  -0.01875   1.88845
   A18        1.87917   0.00044   0.00000  -0.01110  -0.01139   1.86778
   A19        1.91907  -0.00909   0.00000  -0.03522  -0.03505   1.88402
   A20        1.91964   0.00062   0.00000  -0.00406  -0.00386   1.91577
   A21        1.93710  -0.00219   0.00000  -0.03334  -0.03335   1.90375
   A22        1.89024   0.00615   0.00000   0.05428   0.05405   1.94429
   A23        1.89949   0.00638   0.00000   0.04101   0.04011   1.93960
   A24        1.89746  -0.00151   0.00000  -0.01985  -0.02120   1.87626
   A25        1.86869   0.00197   0.00000   0.01210   0.01210   1.88078
    D1        1.05078  -0.00006   0.00000  -0.00325  -0.00334   1.04744
    D2       -1.06811  -0.00051   0.00000  -0.01124  -0.01138  -1.07949
    D3       -3.10622  -0.00061   0.00000  -0.00585  -0.00575  -3.11197
    D4       -1.05287   0.00064   0.00000   0.00852   0.00850  -1.04437
    D5        3.11142   0.00018   0.00000   0.00053   0.00046   3.11188
    D6        1.07332   0.00009   0.00000   0.00592   0.00609   1.07941
    D7        3.14045   0.00042   0.00000   0.00480   0.00477  -3.13796
    D8        1.02156  -0.00004   0.00000  -0.00319  -0.00327   1.01829
    D9       -1.01655  -0.00013   0.00000   0.00220   0.00236  -1.01419
   D10       -3.11727  -0.00001   0.00000  -0.01966  -0.01967  -3.13694
   D11       -0.99897   0.00014   0.00000  -0.01832  -0.01833  -1.01729
   D12        1.05267   0.00011   0.00000  -0.02328  -0.02347   1.02920
   D13       -1.00527   0.00114   0.00000  -0.00005  -0.00020  -1.00547
   D14        1.11303   0.00128   0.00000   0.00129   0.00115   1.11418
   D15       -3.11851   0.00126   0.00000  -0.00367  -0.00400  -3.12251
   D16        1.05241  -0.00183   0.00000  -0.04209  -0.04176   1.01065
   D17       -3.11247  -0.00168   0.00000  -0.04075  -0.04042   3.13030
   D18       -1.06083  -0.00170   0.00000  -0.04571  -0.04556  -1.10639
   D19       -1.11577   0.00042   0.00000   0.02158   0.02141  -1.09436
   D20        3.08732  -0.00191   0.00000  -0.02092  -0.02075   3.06657
   D21        0.98686   0.00099   0.00000   0.02812   0.02822   1.01507
   D22        3.04309  -0.00037   0.00000   0.01086   0.01081   3.05390
   D23        0.96299  -0.00269   0.00000  -0.03164  -0.03134   0.93165
   D24       -1.13747   0.00021   0.00000   0.01740   0.01762  -1.11985
   D25        0.99318   0.00200   0.00000   0.04320   0.04282   1.03600
   D26       -1.08692  -0.00032   0.00000   0.00070   0.00066  -1.08626
   D27        3.09581   0.00258   0.00000   0.04974   0.04962  -3.13776
   D28       -3.13648  -0.00128   0.00000  -0.02271  -0.02284   3.12386
   D29       -1.03849  -0.00217   0.00000  -0.01532  -0.01634  -1.05483
   D30        1.02150   0.00304   0.00000   0.01432   0.01546   1.03696
         Item               Value     Threshold  Converged?
 Maximum Force            0.009200     0.000450     NO 
 RMS     Force            0.002926     0.000300     NO 
 Maximum Displacement     0.121147     0.001800     NO 
 RMS     Displacement     0.032897     0.001200     NO 
 Predicted change in Energy=-1.604336D-03
 Lowest energy point so far.  Saving SCF results.
 GradGradGradGradGradGradGradGradGradGradGradGradGradGradGradGradGradGrad

 Leave Link  103 at Fri Mar 20 17:24:28 2026, MaxMem=   536870912 cpu:         0.0
 (Enter C:\G09W\l202.exe)
                          Input orientation:                          
 ---------------------------------------------------------------------
 Center     Atomic      Atomic             Coordinates (Angstroms)
 Number     Number       Type             X           Y           Z
 ---------------------------------------------------------------------
      1          6           0       -2.098984   -0.282523    0.564850
      2          6           0       -0.601142   -0.623487    0.526392
      3          6           0        0.147445    0.074902   -0.620115
      4          6           0        1.631775   -0.256573   -0.677362
      5          8           0        2.235620    0.214910    0.530736
      6          1           0       -2.601764   -0.580758   -0.363719
      7          1           0       -2.256081    0.795321    0.693227
      8          1           0       -2.607093   -0.790460    1.393220
      9          1           0       -0.474427   -1.711017    0.427813
     10          1           0       -0.130312   -0.343396    1.475286
     11          1           0       -0.303460   -0.203148   -1.582209
     12          1           0        0.042753    1.163133   -0.518765
     13          1           0        2.085341    0.215492   -1.564733
     14          1           0        1.753619   -1.347233   -0.783258
     15          1           0        3.176710   -0.011714    0.498637
 ---------------------------------------------------------------------
                    Distance matrix (angstroms):
                    1          2          3          4          5
     1  C    0.000000
     2  C    1.536641   0.000000
     3  C    2.564828   1.537079   0.000000
     4  C    3.932216   2.563117   1.521968   0.000000
     5  O    4.363187   2.958066   2.388417   1.430534   0.000000
     6  H    1.097257   2.190116   2.837919   4.257501   4.983314
     7  H    1.096772   2.186246   2.832103   4.254458   4.531959
     8  H    1.096526   2.191600   3.519922   4.747667   5.020610
     9  H    2.167616   1.099316   2.162033   2.787993   3.326281
    10  H    2.169855   1.095688   2.154723   2.783232   2.607971
    11  H    2.800012   2.170598   1.098295   2.136992   3.329600
    12  H    2.801996   2.167710   1.097942   2.136752   2.609453
    13  H    4.721410   3.506263   2.160441   1.102721   2.100851
    14  H    4.218240   2.789963   2.151483   1.102542   2.097426
    15  H    5.283055   3.827167   3.230411   1.956976   0.968524
                    6          7          8          9         10
     6  H    0.000000
     7  H    1.769244   0.000000
     8  H    1.769417   1.768587   0.000000
     9  H    2.535659   3.086497   2.515492   0.000000
    10  H    3.089718   2.535190   2.518144   1.756702   0.000000
    11  H    2.628594   3.160265   3.808521   2.518548   3.065604
    12  H    3.171540   2.624661   3.807085   3.069890   2.505159
    13  H    4.903611   4.927730   5.637407   3.772809   3.803050
    14  H    4.442168   4.779983   4.905391   2.561878   3.107717
    15  H    5.870113   5.495852   5.904160   4.027835   3.464137
                   11         12         13         14         15
    11  H    0.000000
    12  H    1.765644   0.000000
    13  H    2.425270   2.482788   0.000000
    14  H    2.485725   3.049419   1.778441   0.000000
    15  H    4.059329   3.498151   2.345252   2.334964   0.000000
 Stoichiometry    C4H10O
 Framework group  C1[X(C4H10O)]
 Deg. of freedom    39
 Full point group                 C1      NOp   1
 RotChk:  IX=0 Diff= 4.05D-02
 Largest Abelian subgroup         C1      NOp   1
 Largest concise Abelian subgroup C1      NOp   1
                         Standard orientation:                         
 ---------------------------------------------------------------------
 Center     Atomic      Atomic             Coordinates (Angstroms)
 Number     Number       Type             X           Y           Z
 ---------------------------------------------------------------------
      1          6           0        2.409139   -0.143174   -0.124703
      2          6           0        0.959161   -0.344505    0.342518
      3          6           0       -0.009737    0.703383   -0.228252
      4          6           0       -1.450021    0.523028    0.229395
      5          8           0       -1.910806   -0.742242   -0.253507
      6          1           0        2.795538    0.837745    0.179379
      7          1           0        2.484527   -0.202892   -1.217250
      8          1           0        3.077221   -0.905357    0.293762
      9          1           0        0.918945   -0.310034    1.440557
     10          1           0        0.608862   -1.341420    0.052719
     11          1           0        0.318816    1.710418    0.061897
     12          1           0        0.009128    0.662887   -1.325285
     13          1           0       -2.069752    1.350261   -0.154810
     14          1           0       -1.486225    0.565333    1.330531
     15          1           0       -2.821857   -0.861399    0.052806
 ---------------------------------------------------------------------
 Rotational constants (GHZ):     12.4599600      2.3523033      2.1675300
 Leave Link  202 at Fri Mar 20 17:24:28 2026, MaxMem=   536870912 cpu:         0.0
 (Enter C:\G09W\l301.exe)
 Standard basis: 6-31G(d) (6D, 7F)
 Ernie: Thresh=  0.10000D-02 Tol=  0.10000D-05 Strict=F.
 There are    95 symmetry adapted cartesian basis functions of A   symmetry.
 There are    95 symmetry adapted basis functions of A   symmetry.
    95 basis functions,   180 primitive gaussians,    95 cartesian basis functions
    21 alpha electrons       21 beta electrons
       nuclear repulsion energy       187.2378073656 Hartrees.
 IExCor=  402 DFT=T Ex+Corr=B3LYP ExCW=0 ScaHFX=  0.200000
 ScaDFX=  0.800000  0.720000  1.000000  0.810000 ScalE2=  1.000000  1.000000
 IRadAn=      0 IRanWt=     -1 IRanGd=            0 ICorTp=0 IEmpDi=  4
 NAtoms=   15 NActive=   15 NUniq=   15 SFac= 1.00D+00 NAtFMM=   60 NAOKFM=F Big=F
 Integral buffers will be    131072 words long.
 Raffenetti 2 integral format.
 Two-electron integral symmetry is turned on.
 Leave Link  301 at Fri Mar 20 17:24:28 2026, MaxMem=   536870912 cpu:         0.0
 (Enter C:\G09W\l302.exe)
 NPDir=0 NMtPBC=     1 NCelOv=     1 NCel=       1 NClECP=     1 NCelD=      1
         NCelK=      1 NCelE2=     1 NClLst=     1 CellRange=     0.0.
 One-electron integrals computed using PRISM.
 NBasis=    95 RedAO= T EigKep=  4.26D-03  NBF=    95
 NBsUse=    95 1.00D-06 EigRej= -1.00D+00 NBFU=    95
 Precomputing XC quadrature grid using
 IXCGrd= 4 IRadAn=           0 IRanWt=          -1 IRanGd=           0 AccXCQ= 0.00D+00.
 Generated NRdTot=       0 NPtTot=           0 NUsed=           0 NTot=          32
 NSgBfM=    95    95    95    95    95 MxSgAt=    15 MxSgA2=    15.
 Leave Link  302 at Fri Mar 20 17:24:28 2026, MaxMem=   536870912 cpu:         0.0
 (Enter C:\G09W\l303.exe)
 DipDrv:  MaxL=1.
 Leave Link  303 at Fri Mar 20 17:24:29 2026, MaxMem=   536870912 cpu:         0.0
 (Enter C:\G09W\l401.exe)
 Initial guess from the checkpoint file:  "1-butanol_rdkit.chk"
 B after Tr=     0.000000    0.000000    0.000000
         Rot=    0.999906    0.013249    0.000210   -0.003500 Ang=   1.57 deg.
 Guess basis will be translated and rotated to current coordinates.
 JPrj=2 DoOrth=T DoCkMO=T.
 Generating alternative initial guess.
 ExpMin= 1.61D-01 ExpMax= 5.48D+03 ExpMxC= 8.25D+02 IAcc=1 IRadAn=         1 AccDes= 0.00D+00
 Harris functional with IExCor=  402 and IRadAn=       1 diagonalized for initial guess.
 HarFok:  IExCor=  402 AccDes= 0.00D+00 IRadAn=         1 IDoV= 1 UseB2=F ITyADJ=14
 ICtDFT=  3500011 ScaDFX=  1.000000  1.000000  1.000000  1.000000
 FoFCou: FMM=F IPFlag=           0 FMFlag=      100000 FMFlg1=           0
         NFxFlg=           0 DoJE=T BraDBF=F KetDBF=T FulRan=T
         wScrn=  0.000000 ICntrl=     500 IOpCl=  0 I1Cent=   200000004 NGrid=           0
         NMat0=    1 NMatS0=      1 NMatT0=    0 NMatD0=    1 NMtDS0=    0 NMtDT0=    0
 Petite list used in FoFCou.
 Harris En= -233.721642305030    
 Leave Link  401 at Fri Mar 20 17:24:30 2026, MaxMem=   536870912 cpu:         1.0
 (Enter C:\G09W\l502.exe)
 Closed shell SCF:
 Using DIIS extrapolation, IDIIS=  1040.
 Integral symmetry usage will be decided dynamically.
 Keep R1 ints in memory in canonical form, NReq=11361312.
 IVT=       46930 IEndB=       46930 NGot=   536870912 MDV=   526424903
 LenX=   526424903 LenY=   526415437
 Requested convergence on RMS density matrix=1.00D-08 within 128 cycles.
 Requested convergence on MAX density matrix=1.00D-06.
 Requested convergence on             energy=1.00D-06.
 No special actions if energy rises.
 FoFCou: FMM=F IPFlag=           0 FMFlag=           0 FMFlg1=           0
         NFxFlg=           0 DoJE=F BraDBF=F KetDBF=F FulRan=T
         wScrn=  0.000000 ICntrl=     600 IOpCl=  0 I1Cent=           0 NGrid=           0
         NMat0=    1 NMatS0=   4560 NMatT0=    0 NMatD0=    1 NMtDS0=    0 NMtDT0=    0
 Symmetry not used in FoFCou.
 Integral accuracy reduced to 1.0D-05 until final iterations.

 Cycle   1  Pass 0  IDiag  1:
 E= -233.660382725078    
 DIIS: error= 1.93D-03 at cycle   1 NSaved=   1.
 NSaved= 1 IEnMin= 1 EnMin= -233.660382725078     IErMin= 1 ErrMin= 1.93D-03
 ErrMax= 1.93D-03  0.00D+00 EMaxC= 1.00D-01 BMatC= 6.63D-04 BMatP= 6.63D-04
 IDIUse=3 WtCom= 9.81D-01 WtEn= 1.93D-02
 Coeff-Com:  0.100D+01
 Coeff-En:   0.100D+01
 Coeff:      0.100D+01
 Gap=     1.806 Goal=   None    Shift=    0.000
 GapD=    1.806 DampG=2.000 DampE=1.000 DampFc=2.0000 IDamp=-1.
 RMSDP=4.30D-04 MaxDP=6.75D-03              OVMax= 8.51D-03

 Cycle   2  Pass 0  IDiag  1:
 E= -233.661371736544     Delta-E=       -0.000989011466 Rises=F Damp=F
 DIIS: error= 5.23D-04 at cycle   2 NSaved=   2.
 NSaved= 2 IEnMin= 2 EnMin= -233.661371736544     IErMin= 2 ErrMin= 5.23D-04
 ErrMax= 5.23D-04  0.00D+00 EMaxC= 1.00D-01 BMatC= 4.60D-05 BMatP= 6.63D-04
 IDIUse=3 WtCom= 9.95D-01 WtEn= 5.23D-03
 Coeff-Com:  0.822D-01 0.918D+00
 Coeff-En:   0.000D+00 0.100D+01
 Coeff:      0.818D-01 0.918D+00
 Gap=     0.337 Goal=   None    Shift=    0.000
 RMSDP=1.23D-04 MaxDP=2.49D-03 DE=-9.89D-04 OVMax= 2.52D-03

 Cycle   3  Pass 0  IDiag  1:
 E= -233.661375856254     Delta-E=       -0.000004119711 Rises=F Damp=F
 DIIS: error= 5.06D-04 at cycle   3 NSaved=   3.
 NSaved= 3 IEnMin= 3 EnMin= -233.661375856254     IErMin= 3 ErrMin= 5.06D-04
 ErrMax= 5.06D-04  0.00D+00 EMaxC= 1.00D-01 BMatC= 5.03D-05 BMatP= 4.60D-05
 IDIUse=3 WtCom= 9.95D-01 WtEn= 5.06D-03
 Coeff-Com: -0.223D-01 0.516D+00 0.507D+00
 Coeff-En:   0.000D+00 0.476D+00 0.524D+00
 Coeff:     -0.222D-01 0.515D+00 0.507D+00
 Gap=     0.338 Goal=   None    Shift=    0.000
 RMSDP=6.40D-05 MaxDP=1.32D-03 DE=-4.12D-06 OVMax= 1.25D-03

 Cycle   4  Pass 0  IDiag  1:
 E= -233.661416942896     Delta-E=       -0.000041086641 Rises=F Damp=F
 DIIS: error= 1.50D-04 at cycle   4 NSaved=   4.
 NSaved= 4 IEnMin= 4 EnMin= -233.661416942896     IErMin= 4 ErrMin= 1.50D-04
 ErrMax= 1.50D-04  0.00D+00 EMaxC= 1.00D-01 BMatC= 1.36D-06 BMatP= 4.60D-05
 IDIUse=3 WtCom= 9.98D-01 WtEn= 1.50D-03
 Coeff-Com: -0.151D-01 0.175D+00 0.223D+00 0.618D+00
 Coeff-En:   0.000D+00 0.000D+00 0.000D+00 0.100D+01
 Coeff:     -0.151D-01 0.174D+00 0.222D+00 0.618D+00
 Gap=     0.337 Goal=   None    Shift=    0.000
 RMSDP=1.30D-05 MaxDP=2.76D-04 DE=-4.11D-05 OVMax= 2.63D-04

 Cycle   5  Pass 0  IDiag  1:
 E= -233.661417860620     Delta-E=       -0.000000917724 Rises=F Damp=F
 DIIS: error= 3.55D-05 at cycle   5 NSaved=   5.
 NSaved= 5 IEnMin= 5 EnMin= -233.661417860620     IErMin= 5 ErrMin= 3.55D-05
 ErrMax= 3.55D-05  0.00D+00 EMaxC= 1.00D-01 BMatC= 1.42D-07 BMatP= 1.36D-06
 IDIUse=1 WtCom= 1.00D+00 WtEn= 0.00D+00
 Coeff-Com: -0.614D-02 0.560D-01 0.802D-01 0.315D+00 0.554D+00
 Coeff:     -0.614D-02 0.560D-01 0.802D-01 0.315D+00 0.554D+00
 Gap=     0.337 Goal=   None    Shift=    0.000
 RMSDP=3.99D-06 MaxDP=7.02D-05 DE=-9.18D-07 OVMax= 7.12D-05

 Initial convergence to 1.0D-05 achieved.  Increase integral accuracy.
 Cycle   6  Pass 1  IDiag  1:
 E= -233.661382399368     Delta-E=        0.000035461252 Rises=F Damp=F
 DIIS: error= 9.01D-06 at cycle   1 NSaved=   1.
 NSaved= 1 IEnMin= 1 EnMin= -233.661382399368     IErMin= 1 ErrMin= 9.01D-06
 ErrMax= 9.01D-06  0.00D+00 EMaxC= 1.00D-01 BMatC= 1.51D-08 BMatP= 1.51D-08
 IDIUse=1 WtCom= 1.00D+00 WtEn= 0.00D+00
 Coeff-Com:  0.100D+01
 Coeff:      0.100D+01
 Gap=     0.337 Goal=   None    Shift=    0.000
 RMSDP=3.99D-06 MaxDP=7.02D-05 DE= 3.55D-05 OVMax= 3.46D-05

 Cycle   7  Pass 1  IDiag  1:
 E= -233.661382415206     Delta-E=       -0.000000015838 Rises=F Damp=F
 DIIS: error= 5.22D-06 at cycle   2 NSaved=   2.
 NSaved= 2 IEnMin= 2 EnMin= -233.661382415206     IErMin= 2 ErrMin= 5.22D-06
 ErrMax= 5.22D-06  0.00D+00 EMaxC= 1.00D-01 BMatC= 3.66D-09 BMatP= 1.51D-08
 IDIUse=1 WtCom= 1.00D+00 WtEn= 0.00D+00
 Coeff-Com:  0.250D+00 0.750D+00
 Coeff:      0.250D+00 0.750D+00
 Gap=     0.337 Goal=   None    Shift=    0.000
 RMSDP=9.94D-07 MaxDP=1.68D-05 DE=-1.58D-08 OVMax= 1.61D-05

 Cycle   8  Pass 1  IDiag  1:
 E= -233.661382416633     Delta-E=       -0.000000001427 Rises=F Damp=F
 DIIS: error= 4.75D-06 at cycle   3 NSaved=   3.
 NSaved= 3 IEnMin= 3 EnMin= -233.661382416633     IErMin= 3 ErrMin= 4.75D-06
 ErrMax= 4.75D-06  0.00D+00 EMaxC= 1.00D-01 BMatC= 2.18D-09 BMatP= 3.66D-09
 IDIUse=1 WtCom= 1.00D+00 WtEn= 0.00D+00
 Coeff-Com: -0.134D-01 0.435D+00 0.578D+00
 Coeff:     -0.134D-01 0.435D+00 0.578D+00
 Gap=     0.337 Goal=   None    Shift=    0.000
 RMSDP=4.40D-07 MaxDP=8.88D-06 DE=-1.43D-09 OVMax= 8.59D-06

 Cycle   9  Pass 1  IDiag  1:
 E= -233.661382418383     Delta-E=       -0.000000001750 Rises=F Damp=F
 DIIS: error= 5.72D-07 at cycle   4 NSaved=   4.
 NSaved= 4 IEnMin= 4 EnMin= -233.661382418383     IErMin= 4 ErrMin= 5.72D-07
 ErrMax= 5.72D-07  0.00D+00 EMaxC= 1.00D-01 BMatC= 5.01D-11 BMatP= 2.18D-09
 IDIUse=1 WtCom= 1.00D+00 WtEn= 0.00D+00
 Coeff-Com: -0.114D-01 0.202D+00 0.290D+00 0.519D+00
 Coeff:     -0.114D-01 0.202D+00 0.290D+00 0.519D+00
 Gap=     0.337 Goal=   None    Shift=    0.000
 RMSDP=7.50D-08 MaxDP=1.42D-06 DE=-1.75D-09 OVMax= 1.31D-06

 Cycle  10  Pass 1  IDiag  1:
 E= -233.661382418418     Delta-E=       -0.000000000035 Rises=F Damp=F
 DIIS: error= 1.14D-07 at cycle   5 NSaved=   5.
 NSaved= 5 IEnMin= 5 EnMin= -233.661382418418     IErMin= 5 ErrMin= 1.14D-07
 ErrMax= 1.14D-07  0.00D+00 EMaxC= 1.00D-01 BMatC= 2.35D-12 BMatP= 5.01D-11
 IDIUse=1 WtCom= 1.00D+00 WtEn= 0.00D+00
 Coeff-Com: -0.382D-02 0.464D-01 0.708D-01 0.223D+00 0.664D+00
 Coeff:     -0.382D-02 0.464D-01 0.708D-01 0.223D+00 0.664D+00
 Gap=     0.337 Goal=   None    Shift=    0.000
 RMSDP=1.65D-08 MaxDP=2.71D-07 DE=-3.47D-11 OVMax= 3.13D-07

 Cycle  11  Pass 1  IDiag  1:
 E= -233.661382418424     Delta-E=       -0.000000000006 Rises=F Damp=F
 DIIS: error= 1.68D-08 at cycle   6 NSaved=   6.
 NSaved= 6 IEnMin= 6 EnMin= -233.661382418424     IErMin= 6 ErrMin= 1.68D-08
 ErrMax= 1.68D-08  0.00D+00 EMaxC= 1.00D-01 BMatC= 7.38D-14 BMatP= 2.35D-12
 IDIUse=1 WtCom= 1.00D+00 WtEn= 0.00D+00
 Coeff-Com: -0.443D-03 0.218D-02 0.407D-02 0.409D-01 0.210D+00 0.744D+00
 Coeff:     -0.443D-03 0.218D-02 0.407D-02 0.409D-01 0.210D+00 0.744D+00
 Gap=     0.337 Goal=   None    Shift=    0.000
 RMSDP=3.93D-09 MaxDP=6.82D-08 DE=-6.42D-12 OVMax= 7.64D-08

 SCF Done:  E(RB3LYP) =  -233.661382418     A.U. after   11 cycles
            NFock= 11  Conv=0.39D-08     -V/T= 2.0097
 KE= 2.314243601350D+02 PE=-9.179872700791D+02 EE= 2.656637201601D+02
 Leave Link  502 at Fri Mar 20 17:24:36 2026, MaxMem=   536870912 cpu:         6.0
 (Enter C:\G09W\l701.exe)
 Compute integral first derivatives.
 ... and contract with generalized density number  0.
 Leave Link  701 at Fri Mar 20 17:24:36 2026, MaxMem=   536870912 cpu:         0.0
 (Enter C:\G09W\l702.exe)
 L702 exits ... SP integral derivatives will be done elsewhere.
 Leave Link  702 at Fri Mar 20 17:24:37 2026, MaxMem=   536870912 cpu:         0.0
 (Enter C:\G09W\l703.exe)
 Compute integral first derivatives, UseDBF=F ICtDFT=           0.
 Integral derivatives from FoFJK, PRISM(SPDF).
 Calling FoFJK, ICntrl=      2127 FMM=F ISym2X=0 I1Cent= 0 IOpClX= 0 NMat=1 NMatS=1 NMatT=0.
 FoFJK:  IHMeth= 1 ICntrl=    2127 DoSepK=F KAlg= 0 I1Cent=   0 FoldK=F
 IRaf=         0 NMat=   1 IRICut=       1 DoRegI=T DoRafI=F ISym2E= 0.
 FoFCou: FMM=F IPFlag=           0 FMFlag=      100000 FMFlg1=         800
         NFxFlg=           0 DoJE=F BraDBF=F KetDBF=F FulRan=T
         wScrn=  0.000000 ICntrl=    2127 IOpCl=  0 I1Cent=           0 NGrid=           0
         NMat0=    1 NMatS0=      1 NMatT0=    0 NMatD0=    1 NMtDS0=    0 NMtDT0=    0
 Symmetry not used in FoFCou.
 Leave Link  703 at Fri Mar 20 17:24:38 2026, MaxMem=   536870912 cpu:         1.0
 (Enter C:\G09W\l716.exe)
 Dipole        =-3.85505389D-01 3.21349485D-01 3.24724323D-01
 ***** Axes restored to original set *****
 -------------------------------------------------------------------
 Center     Atomic                   Forces (Hartrees/Bohr)
 Number     Number              X              Y              Z
 -------------------------------------------------------------------
      1        6           0.001973169   -0.000316781   -0.000239693
      2        6          -0.001078700    0.000993331   -0.000376961
      3        6          -0.001994866    0.000176496    0.001343400
      4        6          -0.000885780   -0.000006927    0.002889083
      5        8          -0.000309448   -0.000875978   -0.003582666
      6        1           0.000175723    0.000018632   -0.000216468
      7        1           0.000102867    0.000228879   -0.000095952
      8        1           0.000705843   -0.000118492   -0.000093114
      9        1          -0.000147573   -0.000307668   -0.000095086
     10        1          -0.000043881   -0.000093393    0.000094190
     11        1          -0.000378091    0.000192271   -0.000750251
     12        1          -0.000566005    0.000404407   -0.000412846
     13        1           0.000446631    0.000292280    0.001030559
     14        1           0.001559201   -0.000408873    0.000222979
     15        1           0.000440910   -0.000178183    0.000282826
 -------------------------------------------------------------------
 Cartesian Forces:  Max     0.003582666 RMS     0.000960364
 Leave Link  716 at Fri Mar 20 17:24:39 2026, MaxMem=   536870912 cpu:         0.0
 (Enter C:\G09W\l103.exe)

 GradGradGradGradGradGradGradGradGradGradGradGradGradGradGradGradGradGrad
 Berny optimization.
 Using GEDIIS/GDIIS optimizer.
 FormGI is forming the generalized inverse of G from B-inverse, IUseBI=4.
 Internal  Forces:  Max     0.003085557 RMS     0.000768348
 Search for a local minimum.
 Step number   2 out of a maximum of   79
 All quantities printed in internal units (Hartrees-Bohrs-Radians)
 RMS Force = .76835D-03 SwitMx=.10000D-02 MixMth= 2
 Mixed Optimization -- En-DIIS/RFO-DIIS
 Update second derivatives using D2CorX and points    1    2
 DE= -1.25D-03 DEPred=-1.60D-03 R= 7.80D-01
 TightC=F SS=  1.41D+00  RLast= 1.73D-01 DXNew= 5.0454D-01 5.1965D-01
 Trust test= 7.80D-01 RLast= 1.73D-01 DXMaxT set to 5.05D-01
 ITU=  1  0
 Use linear search instead of GDIIS.
     Eigenvalues ---    0.00364   0.00452   0.00492   0.01422   0.03478
     Eigenvalues ---    0.03532   0.04798   0.04876   0.05432   0.05518
     Eigenvalues ---    0.05563   0.06058   0.08368   0.08516   0.11676
     Eigenvalues ---    0.12275   0.12348   0.13710   0.15919   0.16000
     Eigenvalues ---    0.16000   0.16176   0.21916   0.21956   0.22930
     Eigenvalues ---    0.29517   0.29970   0.32000   0.33658   0.34047
     Eigenvalues ---    0.34110   0.34134   0.34194   0.34276   0.34277
     Eigenvalues ---    0.34296   0.34522   0.44101   0.52941
 RFO step:  Lambda=-6.27287907D-05 EMin= 3.64212400D-03
 Quartic linear search produced a step of -0.16110.
 Iteration  1 RMS(Cart)=  0.00911806 RMS(Int)=  0.00005717
 Iteration  2 RMS(Cart)=  0.00004931 RMS(Int)=  0.00004158
 Iteration  3 RMS(Cart)=  0.00000000 RMS(Int)=  0.00004158
 ITry= 1 IFail=0 DXMaxC= 2.41D-02 DCOld= 1.00D+10 DXMaxT= 5.05D-01 DXLimC= 3.00D+00 Rises=F
 Variable       Old X    -DE/DX   Delta X   Delta X   Delta X     New X
                                 (Linear)    (Quad)   (Total)
    R1        2.90383  -0.00294  -0.00484  -0.00275  -0.00759   2.89624
    R2        2.07351   0.00009  -0.00078   0.00110   0.00032   2.07383
    R3        2.07260   0.00020  -0.00064   0.00120   0.00057   2.07316
    R4        2.07213  -0.00034  -0.00062  -0.00015  -0.00077   2.07137
    R5        2.90466  -0.00177  -0.00204  -0.00277  -0.00481   2.89984
    R6        2.07741   0.00030  -0.00094   0.00178   0.00083   2.07824
    R7        2.07055   0.00004   0.00008   0.00001   0.00009   2.07064
    R8        2.87610   0.00145   0.00056   0.00342   0.00398   2.88008
    R9        2.07548   0.00076  -0.00065   0.00260   0.00195   2.07743
   R10        2.07481   0.00042  -0.00034   0.00141   0.00107   2.07588
   R11        2.70332  -0.00309  -0.00312  -0.00263  -0.00575   2.69757
   R12        2.08384  -0.00052  -0.00248   0.00149  -0.00099   2.08285
   R13        2.08350   0.00056  -0.00238   0.00401   0.00163   2.08513
   R14        1.83025   0.00046   0.00117  -0.00057   0.00060   1.83085
    A1        1.94460  -0.00014  -0.00115   0.00051  -0.00063   1.94397
    A2        1.93972   0.00000  -0.00040   0.00054   0.00015   1.93987
    A3        1.94744  -0.00082  -0.00372  -0.00024  -0.00394   1.94350
    A4        1.87605   0.00009   0.00233  -0.00197   0.00036   1.87640
    A5        1.87662   0.00049   0.00154   0.00066   0.00223   1.87884
    A6        1.87594   0.00044   0.00169   0.00043   0.00213   1.87807
    A7        1.97422  -0.00104  -0.00475   0.00080  -0.00394   1.97028
    A8        1.91146   0.00023  -0.00113   0.00095  -0.00019   1.91127
    A9        1.91821   0.00024  -0.00265   0.00348   0.00079   1.91900
   A10        1.90336   0.00033   0.00208  -0.00133   0.00082   1.90418
   A11        1.89710   0.00043   0.00426  -0.00228   0.00206   1.89915
   A12        1.85565  -0.00014   0.00254  -0.00184   0.00077   1.85642
   A13        1.98676  -0.00100  -0.00453   0.00182  -0.00270   1.98406
   A14        1.91604   0.00034  -0.00033   0.00110   0.00074   1.91678
   A15        1.91245   0.00024  -0.00205   0.00347   0.00140   1.91385
   A16        1.88842   0.00033   0.00242  -0.00153   0.00093   1.88935
   A17        1.88845   0.00055   0.00302   0.00049   0.00357   1.89202
   A18        1.86778  -0.00043   0.00183  -0.00593  -0.00405   1.86373
   A19        1.88402   0.00172   0.00565   0.00007   0.00568   1.88970
   A20        1.91577  -0.00013   0.00062  -0.00093  -0.00033   1.91544
   A21        1.90375   0.00118   0.00537   0.00591   0.01127   1.91502
   A22        1.94429  -0.00134  -0.00871  -0.00220  -0.01087   1.93342
   A23        1.93960  -0.00125  -0.00646   0.00215  -0.00423   1.93536
   A24        1.87626  -0.00014   0.00342  -0.00482  -0.00123   1.87503
   A25        1.88078   0.00042  -0.00195   0.00439   0.00244   1.88322
    D1        1.04744  -0.00003   0.00054  -0.00224  -0.00169   1.04575
    D2       -1.07949   0.00008   0.00183  -0.00177   0.00008  -1.07941
    D3       -3.11197  -0.00002   0.00093  -0.00210  -0.00119  -3.11316
    D4       -1.04437  -0.00005  -0.00137  -0.00046  -0.00182  -1.04619
    D5        3.11188   0.00006  -0.00007   0.00001  -0.00005   3.11183
    D6        1.07941  -0.00004  -0.00098  -0.00032  -0.00132   1.07808
    D7       -3.13796  -0.00006  -0.00077  -0.00121  -0.00197  -3.13993
    D8        1.01829   0.00005   0.00053  -0.00074  -0.00020   1.01809
    D9       -1.01419  -0.00005  -0.00038  -0.00107  -0.00147  -1.01566
   D10       -3.13694   0.00005   0.00317  -0.01413  -0.01095   3.13529
   D11       -1.01729   0.00002   0.00295  -0.01403  -0.01108  -1.02837
   D12        1.02920  -0.00015   0.00378  -0.01855  -0.01474   1.01446
   D13       -1.00547  -0.00012   0.00003  -0.01332  -0.01327  -1.01873
   D14        1.11418  -0.00014  -0.00019  -0.01323  -0.01339   1.10079
   D15       -3.12251  -0.00032   0.00064  -0.01775  -0.01705  -3.13956
   D16        1.01065   0.00013   0.00673  -0.01747  -0.01079   0.99986
   D17        3.13030   0.00011   0.00651  -0.01737  -0.01092   3.11938
   D18       -1.10639  -0.00007   0.00734  -0.02189  -0.01458  -1.12097
   D19       -1.09436  -0.00032  -0.00345  -0.00561  -0.00905  -1.10341
   D20        3.06657   0.00033   0.00334  -0.00242   0.00090   3.06748
   D21        1.01507  -0.00011  -0.00455   0.00048  -0.00406   1.01101
   D22        3.05390  -0.00032  -0.00174  -0.00712  -0.00887   3.04503
   D23        0.93165   0.00033   0.00505  -0.00392   0.00108   0.93273
   D24       -1.11985  -0.00012  -0.00284  -0.00102  -0.00388  -1.12374
   D25        1.03600  -0.00027  -0.00690   0.00039  -0.00646   1.02953
   D26       -1.08626   0.00038  -0.00011   0.00359   0.00349  -1.08276
   D27       -3.13776  -0.00007  -0.00799   0.00649  -0.00147  -3.13923
   D28        3.12386   0.00044   0.00368  -0.00453  -0.00084   3.12303
   D29       -1.05483   0.00057   0.00263  -0.00697  -0.00421  -1.05904
   D30        1.03696  -0.00135  -0.00249  -0.01309  -0.01572   1.02124
         Item               Value     Threshold  Converged?
 Maximum Force            0.003086     0.000450     NO 
 RMS     Force            0.000768     0.000300     NO 
 Maximum Displacement     0.024091     0.001800     NO 
 RMS     Displacement     0.009111     0.001200     NO 
 Predicted change in Energy=-7.944821D-05
 Lowest energy point so far.  Saving SCF results.
 GradGradGradGradGradGradGradGradGradGradGradGradGradGradGradGradGradGrad

 Leave Link  103 at Fri Mar 20 17:24:39 2026, MaxMem=   536870912 cpu:         0.0
 (Enter C:\G09W\l202.exe)
                          Input orientation:                          
 ---------------------------------------------------------------------
 Center     Atomic      Atomic             Coordinates (Angstroms)
 Number     Number       Type             X           Y           Z
 ---------------------------------------------------------------------
      1          6           0       -2.095327   -0.278258    0.565150
      2          6           0       -0.603788   -0.628353    0.524096
      3          6           0        0.142155    0.070979   -0.620146
      4          6           0        1.629403   -0.257901   -0.672440
      5          8           0        2.236600    0.223271    0.526527
      6          1           0       -2.600079   -0.568099   -0.365205
      7          1           0       -2.245162    0.800155    0.699829
      8          1           0       -2.602646   -0.789228    1.391598
      9          1           0       -0.484749   -1.716606    0.419220
     10          1           0       -0.129556   -0.355996    1.473601
     11          1           0       -0.306511   -0.209206   -1.583844
     12          1           0        0.030863    1.159503   -0.522956
     13          1           0        2.084406    0.214810   -1.558077
     14          1           0        1.766367   -1.348176   -0.772650
     15          1           0        3.178025   -0.003448    0.495299
 ---------------------------------------------------------------------
                    Distance matrix (angstroms):
                    1          2          3          4          5
     1  C    0.000000
     2  C    1.532625   0.000000
     3  C    2.556016   1.534531   0.000000
     4  C    3.925003   2.560484   1.524074   0.000000
     5  O    4.361033   2.965312   2.392645   1.427492   0.000000
     6  H    1.097426   2.186244   2.827235   4.251956   4.981457
     7  H    1.097071   2.183031   2.823706   4.244391   4.522059
     8  H    1.096120   2.184919   3.510128   4.738438   5.019144
     9  H    2.164278   1.099757   2.160729   2.790911   3.343708
    10  H    2.166929   1.095734   2.154045   2.776517   2.613655
    11  H    2.796928   2.169671   1.099326   2.140278   3.332884
    12  H    2.787798   2.166917   1.098507   2.141660   2.615955
    13  H    4.713955   3.503250   2.161653   1.102196   2.090169
    14  H    4.224584   2.795949   2.162250   1.103405   2.092469
    15  H    5.280969   3.833203   3.235160   1.956167   0.968843
                    6          7          8          9         10
     6  H    0.000000
     7  H    1.769854   0.000000
     8  H    1.770667   1.769881   0.000000
     9  H    2.531602   3.084134   2.508194   0.000000
    10  H    3.087018   2.532035   2.512089   1.757596   0.000000
    11  H    2.621896   3.161066   3.802883   2.513223   3.066077
    12  H    3.151404   2.608568   3.794528   3.070107   2.511715
    13  H    4.896967   4.917919   5.628244   3.773676   3.797172
    14  H    4.454254   4.782874   4.907613   2.573678   3.102352
    15  H    5.869052   5.486216   5.902284   4.044331   3.467196
                   11         12         13         14         15
    11  H    0.000000
    12  H    1.764275   0.000000
    13  H    2.428361   2.486153   0.000000
    14  H    2.500423   3.059865   1.777912   0.000000
    15  H    4.062901   3.506269   2.336662   2.325676   0.000000
 Stoichiometry    C4H10O
 Framework group  C1[X(C4H10O)]
 Deg. of freedom    39
 Full point group                 C1      NOp   1
 RotChk:  IX=0 Diff= 5.94D-03
 Largest Abelian subgroup         C1      NOp   1
 Largest concise Abelian subgroup C1      NOp   1
                         Standard orientation:                         
 ---------------------------------------------------------------------
 Center     Atomic      Atomic             Coordinates (Angstroms)
 Number     Number       Type             X           Y           Z
 ---------------------------------------------------------------------
      1          6           0        2.404521   -0.146180   -0.128971
      2          6           0        0.961419   -0.341611    0.348736
      3          6           0       -0.004441    0.702654   -0.226947
      4          6           0       -1.446902    0.519740    0.229837
      5          8           0       -1.914237   -0.738374   -0.256456
      6          1           0        2.792580    0.838129    0.162384
      7          1           0        2.472845   -0.217719   -1.221572
      8          1           0        3.071687   -0.905339    0.295348
      9          1           0        0.928681   -0.295265    1.447028
     10          1           0        0.607820   -1.340906    0.071228
     11          1           0        0.322621    1.711861    0.061234
     12          1           0        0.019519    0.662752   -1.324468
     13          1           0       -2.067662    1.343827   -0.157947
     14          1           0       -1.496432    0.558720    1.331440
     15          1           0       -2.825338   -0.856682    0.051044
 ---------------------------------------------------------------------
 Rotational constants (GHZ):     12.4841939      2.3528589      2.1707835
 Leave Link  202 at Fri Mar 20 17:24:39 2026, MaxMem=   536870912 cpu:         0.0
 (Enter C:\G09W\l301.exe)
 Standard basis: 6-31G(d) (6D, 7F)
 Ernie: Thresh=  0.10000D-02 Tol=  0.10000D-05 Strict=F.
 There are    95 symmetry adapted cartesian basis functions of A   symmetry.
 There are    95 symmetry adapted basis functions of A   symmetry.
[...]
 ! A11   A(3,2,10)             108.7986         -DE/DX =    0.0                 !
 ! A12   A(9,2,10)             106.3349         -DE/DX =    0.0                 !
 ! A13   A(2,3,4)              113.6991         -DE/DX =    0.0                 !
 ! A14   A(2,3,11)             109.9381         -DE/DX =    0.0                 !
 ! A15   A(2,3,12)             109.7279         -DE/DX =    0.0                 !
 ! A16   A(4,3,11)             108.2166         -DE/DX =    0.0                 !
 ! A17   A(4,3,12)             108.3169         -DE/DX =    0.0                 !
 ! A18   A(11,3,12)            106.6877         -DE/DX =    0.0                 !
 ! A19   A(3,4,5)              108.3305         -DE/DX =    0.0                 !
 ! A20   A(3,4,13)             109.6879         -DE/DX =    0.0                 !
 ! A21   A(3,4,14)             109.6887         -DE/DX =    0.0                 !
 ! A22   A(5,4,13)             110.8551         -DE/DX =    0.0                 !
 ! A23   A(5,4,14)             110.9239         -DE/DX =    0.0                 !
 ! A24   A(13,4,14)            107.3482         -DE/DX =    0.0                 !
 ! A25   A(4,5,15)             107.9567         -DE/DX =    0.0                 !
 ! D1    D(6,1,2,3)             59.6503         -DE/DX =    0.0                 !
 ! D2    D(6,1,2,9)            -62.1018         -DE/DX =    0.0                 !
 ! D3    D(6,1,2,10)          -178.606          -DE/DX =    0.0                 !
 ! D4    D(7,1,2,3)            -60.1695         -DE/DX =    0.0                 !
 ! D5    D(7,1,2,9)            178.0784         -DE/DX =    0.0                 !
 ! D6    D(7,1,2,10)            61.5742         -DE/DX =    0.0                 !
 ! D7    D(8,1,2,3)            179.8297         -DE/DX =    0.0                 !
 ! D8    D(8,1,2,9)             58.0775         -DE/DX =    0.0                 !
 ! D9    D(8,1,2,10)           -58.4266         -DE/DX =    0.0                 !
 ! D10   D(1,2,3,4)            178.9721         -DE/DX =    0.0                 !
 ! D11   D(1,2,3,11)           -59.5348         -DE/DX =    0.0                 !
 ! D12   D(1,2,3,12)            57.504          -DE/DX =    0.0                 !
 ! D13   D(9,2,3,4)            -59.0355         -DE/DX =    0.0                 !
 ! D14   D(9,2,3,11)            62.4576         -DE/DX =    0.0                 !
 ! D15   D(9,2,3,12)           179.4964         -DE/DX =    0.0                 !
 ! D16   D(10,2,3,4)            56.5633         -DE/DX =    0.0                 !
 ! D17   D(10,2,3,11)          178.0565         -DE/DX =    0.0                 !
 ! D18   D(10,2,3,12)          -64.9048         -DE/DX =    0.0                 !
 ! D19   D(2,3,4,5)            -63.2908         -DE/DX =    0.0                 !
 ! D20   D(2,3,4,13)           175.5869         -DE/DX =    0.0                 !
 ! D21   D(2,3,4,14)            57.9161         -DE/DX =    0.0                 !
 ! D22   D(11,3,4,5)           174.2621         -DE/DX =    0.0                 !
 ! D23   D(11,3,4,13)           53.1398         -DE/DX =    0.0                 !
 ! D24   D(11,3,4,14)          -64.531          -DE/DX =    0.0                 !
 ! D25   D(12,3,4,5)            58.9602         -DE/DX =    0.0                 !
 ! D26   D(12,3,4,13)          -62.1621         -DE/DX =    0.0                 !
 ! D27   D(12,3,4,14)         -179.833          -DE/DX =    0.0                 !
 ! D28   D(3,4,5,15)           176.6446         -DE/DX =    0.0                 !
 ! D29   D(13,4,5,15)          -62.9574         -DE/DX =    0.0                 !
 ! D30   D(14,4,5,15)           56.2038         -DE/DX =    0.0                 !
 --------------------------------------------------------------------------------
 GradGradGradGradGradGradGradGradGradGradGradGradGradGradGradGradGradGrad

 Leave Link  103 at Fri Mar 20 17:26:32 2026, MaxMem=   536870912 cpu:         1.0
 (Enter C:\G09W\l9999.exe)
 1|1|UNPC-DESKTOP-GS7R1K3|Freq|RB3LYP|6-31G(d)|C4H10O1|1172|20-Mar-2026
 |0||#P Geom=AllCheck Guess=TCheck SCRF=Check GenChk RB3LYP/6-31G(d) Fr
 eq||1-butanol rdkit||0,1|C,-2.0926949932,-0.2762507672,0.568464024|C,-
 0.6032746077,-0.6302708539,0.5211899652|C,0.1407054363,0.0675932219,-0
 .6241354207|C,1.6298153479,-0.2530748151,-0.6725019841|O,2.2331437196,
 0.2372158745,0.5227268341|H,-2.6006737826,-0.559279334,-0.3622484909|H
 ,-2.2392846178,0.8018680452,0.7091301088|H,-2.5995445455,-0.7902930765
 ,1.3932124059|H,-0.4878194741,-1.7188444808,0.4142443455|H,-0.12410225
 61,-0.3611754148,1.4693037165|H,-0.303761497,-0.2173879424,-1.58857896
 35|H,0.0247474367,1.1562593364,-0.5327246209|H,2.0821490345,0.21634555
 1,-1.5615992809|H,1.7724703439,-1.3431337223,-0.7674599553|H,3.1681244
 552,-0.0161236219,0.5109773163||Version=EM64W-G09RevD.01|State=1-A|HF=
 -233.6614778|RMSD=9.655e-010|RMSF=2.303e-005|ZeroPoint=0.1378441|Therm
 al=0.1445616|Dipole=0.354661,-0.2991854,-0.3726424|DipoleDeriv=0.06314
 47,0.0149648,0.0098661,-0.0236439,0.1221297,0.0213621,0.0641366,0.0084
 366,0.1153008,0.0992606,-0.0016695,0.0026327,0.0335556,0.1597113,0.013
 41,-0.0282889,0.0190952,0.0960163,-0.0085816,0.0105599,0.0120118,0.045
 4514,0.1298872,0.0191548,0.0108302,0.0247904,0.1397616,0.5120947,0.105
 2552,0.1928534,0.08478,0.4680265,0.0950433,0.2331391,0.0783656,0.66292
 84,-0.5026951,-0.1643907,-0.2347164,-0.1835239,-0.5121355,-0.069853,-0
 .2695178,-0.0571852,-0.7325072,-0.0321883,-0.0079166,-0.0600231,-0.015
 5632,0.0355612,-0.0533988,-0.1176837,-0.0501917,-0.114222,0.0140398,0.
 0107261,0.001166,0.0612888,-0.1632508,-0.0325211,-0.0063941,-0.0186674
 ,0.0553658,-0.0666749,-0.037543,0.089268,-0.0535165,0.0123221,0.083215
 8,0.1079568,0.0780847,-0.0719451,-0.0176777,0.0448352,0.0235962,0.0339
 974,-0.1940794,0.0047001,0.0271472,-0.0253931,0.0245056,-0.0040881,-0.
 0085159,-0.0632888,-0.0120516,0.0381218,-0.0292575,-0.0612682,-0.01789
 07,-0.1029881,-0.029103,-0.022321,-0.0698554,-0.0384154,0.0281898,-0.0
 496298,-0.0525052,-0.0242966,-0.1435338,0.0086482,0.0282185,0.0194301,
 0.0237947,-0.1617336,0.0080652,0.0409836,-0.0163635,0.0270823,-0.11214
 94,-0.0512353,0.0916742,-0.0720835,-0.0283596,0.0842389,0.0547052,0.06
 10988,-0.2016828,-0.0318214,0.018447,-0.0177951,0.0323445,-0.2409645,-
 0.0592827,-0.0550714,-0.0164648,-0.0297272,0.1077915,0.060585,0.003180
 2,0.0835857,0.3065736,-0.0352473,0.0518305,-0.0434184,0.2756455|Polar=
 54.3724258,0.3402248,42.8213676,-1.6037871,-0.0188797,45.2764905|PG=C0
 1 [X(C4H10O1)]|NImag=0||0.48425370,0.02346907,0.56796628,-0.00024812,-
 0.00382709,0.57605999,-0.18880889,0.02744442,-0.00009171,0.48835996,0.
 02688199,-0.08811852,-0.00057202,-0.00206538,0.56711201,0.00098841,-0.
 00101068,-0.08135842,0.04509577,0.03624345,0.54360620,-0.02105321,-0.0
 1608486,0.02803088,-0.09988067,-0.02170633,0.03252400,0.49311803,0.001
 45384,0.00473167,-0.00674161,-0.02189808,-0.10709743,0.03788120,-0.002
 77829,0.57340183,0.00490790,-0.00062723,-0.00101911,0.03445199,0.03881
 202,-0.14300922,0.03719313,0.03625145,0.54675425,0.00001869,-0.0009282
 5,0.00132756,-0.02139480,0.00061669,0.00779207,-0.18846370,0.03311216,
 0.01875991,0.50852023,-0.00115775,-0.00248498,0.00282649,-0.01579112,0
 .00456193,-0.00132813,0.02659024,-0.09140362,-0.00228621,-0.00575418,0
 .57793486,0.00140416,0.00281923,-0.00592484,0.02815742,-0.00778203,0.0
 0168964,0.00928975,0.00121952,-0.08026757,-0.04301588,-0.03020813,0.52
 311019,0.00022042,-0.00015603,-0.00061084,0.00135407,-0.00019878,0.000
 22928,-0.02364121,-0.01546116,-0.04078367,-0.11163480,-0.02299673,-0.0
 6477982,0.59185314,0.00015358,0.00013734,-0.00020975,-0.00017409,0.000
 24103,0.00015495,0.00114142,0.00534637,0.00551615,0.00003806,-0.091263
 47,-0.04713806,-0.10282556,0.12931492,0.00010210,-0.00016296,0.0012513
 0,0.00039995,0.00075107,-0.00145456,-0.00970943,-0.00230211,-0.0043009
 5,-0.02443290,-0.05856080,-0.18697793,0.07450020,0.10320276,0.27581154
 ,-0.10148968,-0.03104961,-0.09878604,-0.01589395,-0.00965067,-0.029291
 23,0.00183461,-0.00011965,-0.00199688,-0.00011861,0.00028971,-0.000293
 25,-0.00000172,-0.00011338,0.00042424,0.11180986,-0.03112450,-0.068857
 45,-0.05827471,0.00415795,0.00209585,0.00827229,-0.00038479,-0.0000760
 0,-0.00026093,-0.00011121,-0.00004868,0.00022634,0.00013006,0.00001969
 ,0.00000215,0.03269418,0.06879080,-0.09889691,-0.05824855,-0.23790019,
 0.00046501,0.00108603,0.00141084,0.00057645,0.00023834,0.00099828,-0.0
 0011209,-0.00001791,0.00022826,0.00008474,-0.00001006,0.00005187,0.109
 92045,0.06458470,0.25682965,-0.05259285,0.02962243,0.00393551,-0.00427
 586,0.03444249,0.00500814,0.00185453,0.00138627,-0.00076811,-0.0000957
 8,0.00007401,-0.00021244,-0.00004005,-0.00016777,0.00001967,0.00144295
 ,-0.01521485,-0.00065490,0.05753762,0.02999116,-0.30112851,-0.03337860
 ,0.00148698,-0.00744835,-0.00064483,-0.00073095,0.00047449,0.00031872,
 -0.00006092,0.00037359,-0.00001213,0.00013855,0.00010717,0.00001361,0.
 00035969,-0.00755363,-0.00078472,-0.03493493,0.32732996,0.00395077,-0.
 03335865,-0.05514207,0.00002519,-0.00009924,-0.00074677,-0.00020115,-0
 .00105269,0.00007858,0.00012432,0.00015500,0.00004657,-0.00003447,-0.0
 0000037,-0.00010062,0.00413094,-0.02909958,-0.00297119,-0.00447177,0.0
 3670970,0.05329970,-0.10166066,-0.05638871,0.08908443,-0.01407235,-0.0
 1698632,0.02577450,-0.00635302,0.00339710,-0.00201751,-0.00002423,-0.0
 0124705,0.00219025,-0.00006145,-0.00001472,-0.00039145,0.00739300,0.00
 857052,-0.01117857,0.00150407,0.00143317,-0.00396742,0.11117954,-0.056
 79208,-0.10899745,0.09438779,0.00436054,0.00386731,-0.00812505,0.00135
 849,-0.00018191,0.00008693,0.00040941,0.00065494,-0.00018254,-0.000031
 95,-0.00004329,-0.00003916,0.00544592,0.00447635,-0.00756727,-0.014843
 66,-0.01458595,0.02585227,0.06097687,0.11386001,0.08956540,0.09430407,
 -0.20011190,-0.00105210,-0.00094897,0.00033946,0.00048280,-0.00061135,
 0.00092082,-0.00041064,0.00037063,0.00007236,0.00025882,0.00001083,0.0
 0012475,0.01291762,0.01413464,-0.02076105,-0.00340513,-0.00240912,0.00
 433082,-0.09876607,-0.10427516,0.21405963,-0.00502943,0.03474476,0.004
 34365,-0.05121808,0.02328863,0.00112363,0.00013719,-0.01651217,-0.0016
 6658,0.00131207,-0.00181637,-0.00054934,-0.00014938,0.00051381,-0.0000
 4638,0.00152922,-0.00049992,-0.00041842,-0.00683934,0.00167432,0.00006
 117,0.00138401,-0.00054770,0.00025795,0.05826119,0.00111490,-0.0068898
 4,-0.00097816,0.02357843,-0.29316108,-0.02770602,0.00063632,-0.0171215
 3,-0.00120255,0.00114652,-0.00029876,-0.00070954,-0.00027354,0.0004110
 7,0.00001727,0.00016708,0.00045173,0.00050323,0.00148682,0.00133470,0.
 00012191,0.00039185,0.00055500,-0.00036809,-0.02652857,0.32119596,-0.0
 0008372,-0.00094006,-0.00047247,0.00120396,-0.02825478,-0.05464215,-0.
 00138885,0.02775642,0.00159634,-0.00123075,0.00036032,0.00097484,-0.00
 015887,-0.00003918,-0.00009654,0.00032318,0.00062993,0.00025890,0.0004
 6274,0.00035681,0.00097485,-0.00002386,-0.00031197,-0.00003771,-0.0051
 1279,0.02800643,0.05592903,-0.01617667,-0.00867904,-0.02876877,-0.0975
 1219,-0.02828152,-0.09948391,0.00737111,0.00457190,0.01524117,0.001048
 52,0.00082893,0.00054545,-0.00175474,-0.00045843,0.00018543,-0.0062916
 7,0.00204479,0.00074929,0.00156629,0.00020368,0.00017855,0.00118052,-0
 .00060893,0.00033257,0.00170207,0.00063125,0.00392723,0.10980575,0.004
 25473,0.00202430,0.00806958,-0.02822363,-0.07026841,-0.05894438,0.0069
 1262,0.00412605,0.01508529,0.00016345,0.00040489,-0.00072166,-0.000477
 94,-0.00036929,0.00042766,0.00212250,0.00059675,0.00044162,-0.00044694
 ,0.00049676,0.00058012,-0.00056507,0.00005836,-0.00023309,-0.01455089,
 -0.00852851,-0.02919659,0.03145219,0.07138801,0.00119032,0.00095236,0.
 00281417,-0.09745425,-0.05794192,-0.24422451,-0.00907304,-0.00667262,-
 0.02438377,-0.00210875,-0.00054552,-0.00172657,-0.00034949,-0.00006334
 ,0.00161832,0.00109459,-0.00006220,0.00140562,-0.00031446,0.00035848,0
 .00016348,-0.00052719,0.00009616,0.00065447,-0.00085835,-0.00144821,-0
 .00238311,0.10551445,0.06196187,0.26684268,0.00165507,0.00051916,0.000
 70030,0.00612742,0.00477378,0.01513392,-0.09255020,-0.02572554,-0.0885
 7873,-0.00912405,-0.01194864,-0.02999075,-0.00852334,0.00266786,0.0006
 6478,-0.00019092,-0.00023202,-0.00046950,-0.00008414,0.00001028,0.0000
 2237,0.00018817,-0.00003383,-0.00022836,0.00037870,0.00030924,-0.00079
 275,-0.00148341,-0.00168195,0.00289720,0.10142531,0.00061996,0.0002154
 2,-0.00054457,0.00653512,0.00405677,0.01555492,-0.02703711,-0.06893963
 ,-0.05993620,0.00317111,0.00050500,0.00725747,0.00144678,0.00031964,-0
 .00011977,-0.00008013,0.00015941,-0.00027932,-0.00011662,-0.00001851,-
 0.00010182,0.00027393,-0.00012338,-0.00002023,0.00079144,0.00084783,-0
 .00035925,-0.00175030,-0.00054898,0.00300698,0.03130579,0.07041736,-0.
 00150643,-0.00043165,0.00080847,-0.00994339,-0.00676255,-0.02418446,-0
 .09063567,-0.05996724,-0.23950599,0.00143711,0.00010651,-0.00055446,0.
 00023231,0.00028041,0.00140818,0.00123958,0.00002019,0.00045481,0.0000
 9138,0.00000996,-0.00000234,0.00008218,0.00024371,0.00048709,-0.000223
 56,0.00035374,0.00113722,0.00316359,0.00317869,-0.00289637,0.09741339,
 0.06392099,0.26412902,0.00108509,-0.00118584,-0.00059679,0.00053349,-0
 .01625308,-0.00145768,-0.05201963,0.02395952,0.00145666,-0.00622964,0.
 03729580,0.00441302,0.00299437,-0.00171863,0.00043353,-0.00006874,-0.0
 0003828,-0.00000361,-0.00021083,0.00056380,0.00023006,0.00015564,0.000
 27153,-0.00007791,-0.00123637,-0.00147000,0.00298505,0.00040131,0.0008
 3422,-0.00025457,0.00145330,-0.01434094,-0.00081738,0.05791036,0.00088
 012,0.00050267,-0.00064972,0.00095692,-0.01647933,-0.00084717,0.025962
 97,-0.29818368,-0.02347256,0.00108276,-0.00925366,-0.00160841,-0.00042
 123,0.00137131,0.00064745,-0.00006422,-0.00002179,0.00001425,-0.000895
 14,0.00058735,0.00021664,-0.00003276,0.00048108,0.00009410,-0.00146310
 ,-0.00006015,0.00288893,0.00020100,0.00071311,0.00021839,0.00064697,-0
 .00791616,-0.00126452,-0.02861292,0.32605933,-0.00118951,0.00012520,0.
 00086966,-0.00161814,0.02718884,0.00191647,0.00246760,-0.02370159,-0.0
 5317133,-0.00037171,-0.00203793,-0.00099347,0.00015388,0.00104359,0.00
 059563,0.00011427,-0.00015423,-0.00002186,0.00033974,-0.00058250,0.000
 11284,-0.00033914,-0.00016946,-0.00005235,0.00295097,0.00306069,-0.003
 53312,-0.00075675,-0.00030364,0.00100089,0.00419651,-0.02869096,-0.002
 42855,-0.00628468,0.02438650,0.05507583,-0.00025765,-0.00123861,0.0019
 3790,-0.00596827,0.00374299,-0.00223438,-0.01450805,-0.01721096,0.0267
 7427,-0.09768220,-0.04582662,0.08150288,0.00811271,0.00486457,-0.01997
 291,-0.00000308,-0.00003746,-0.00010850,-0.00000154,0.00013007,0.00000
 694,-0.00086405,0.00015813,0.00007484,0.00016441,-0.00007213,-0.000337
 52,0.00014588,0.00014514,0.00012500,0.00085689,-0.00039441,-0.00052158
 ,0.00149089,0.00047740,-0.00022777,0.10320502,0.00026905,0.00046808,-0
 .00012319,0.00073034,-0.00006334,0.00023415,0.00508538,0.00367874,-0.0
 0668722,-0.04786125,-0.10812784,0.08682683,0.00551545,0.01045427,-0.01
 615346,-0.00001693,-0.00000912,-0.00001312,-0.00013672,0.00003027,0.00
 000488,0.00010563,-0.00003629,-0.00001461,0.00026489,0.00056320,-0.000
 22988,-0.00009412,-0.00003209,0.00007824,-0.00074905,0.00012956,0.0000
 9096,-0.00055653,0.00084041,-0.00042892,0.05143968,0.10741320,-0.00017
 288,0.00014649,-0.00001895,-0.00000562,-0.00027779,0.00113073,0.000830
 10,0.00097869,0.00067237,0.08062107,0.08528453,-0.19172414,-0.00020722
 ,0.00261676,-0.03920833,0.00005948,0.00000106,0.00001793,0.00001269,-0
 .00001953,-0.00001631,0.00003807,-0.00002137,-0.00003315,-0.00001961,0
 .00005573,0.00001809,-0.00042197,-0.00006226,0.00037412,0.00062673,-0.
 00000425,0.00076110,-0.00005466,-0.00023039,-0.00019031,-0.08365969,-0
 .09001331,0.22461477,-0.00009792,-0.00008008,-0.00011498,0.00206413,0.
 00129047,-0.00095017,-0.00516483,0.03436328,0.00222981,-0.05881246,0.0
 3348835,0.00426122,0.00142694,-0.01827382,-0.00959229,0.00004716,0.000
 02774,-0.00000950,0.00021018,-0.00025168,-0.00006584,0.00001597,-0.000
 13312,0.00003358,-0.00025475,-0.00096108,0.00024796,-0.00014279,-0.000
 06411,0.00024407,0.00105103,-0.00069769,-0.00031924,-0.00682831,0.0014
 8733,0.00050042,0.00385665,-0.01476682,0.00129904,0.06134707,0.0000224
 6,0.00052733,0.00000044,-0.00104334,0.00040233,0.00033189,0.00175400,-
 0.00757192,0.00041856,0.03357092,-0.28278997,-0.00634886,-0.00571372,-
 0.00853330,-0.01354298,0.00000239,-0.00003965,0.00002191,-0.00028067,0
 .00002317,0.00008006,0.00010022,0.00000617,-0.00004580,0.00070101,0.00
 083148,-0.00065109,-0.00002615,0.00003046,0.00005184,0.00073700,0.0001
 2591,0.00036445,0.00143215,0.00108297,0.00038976,0.00309137,-0.0153664
 5,0.00194428,-0.03439129,0.31070941,0.00002657,0.00011769,0.00001934,-
 0.00016563,-0.00124581,-0.00014149,0.00120196,-0.00043282,0.00127681,0
 .00268633,-0.00356609,-0.05408673,-0.00395696,-0.03823393,-0.01424500,
 -0.00000368,-0.00000712,-0.00000655,-0.00003111,0.00006731,-0.00002990
 ,-0.00001737,-0.00000050,0.00000277,0.00009529,0.00016474,0.00014490,-
 0.00011701,-0.00008003,0.00010036,0.00038103,0.00006759,0.00013280,-0.
 00045067,-0.00043913,0.00093154,-0.00321284,0.02557232,0.00329764,0.00
 179124,0.01765932,0.06167764,-0.00006601,-0.00000881,-0.00014298,0.000
 58599,0.00010506,-0.00025236,-0.00068096,-0.00253824,-0.00520337,-0.01
 731925,0.00797142,0.00707733,-0.46015497,0.11436710,-0.01258452,0.0000
 0156,0.00001782,0.00005606,0.00002475,-0.00001323,0.00001035,0.0000348
 6,0.00001037,0.00001665,-0.00014151,-0.00015710,-0.00002102,0.00014002
 ,0.00012567,-0.00012553,-0.00117982,0.00027305,0.00030771,0.00056906,-
 0.00020609,0.00006432,0.00145240,0.00077100,0.00105445,0.00128193,0.00
 004365,0.00177285,0.47545194,-0.00003653,-0.00009635,0.00001513,-0.000
 05505,0.00029924,-0.00006659,-0.00071912,-0.00118342,-0.00201622,-0.01
 859527,0.00123579,-0.00363803,0.14132580,-0.04751345,-0.01418073,0.000
 01312,0.00001574,0.00003088,0.00002527,-0.00002250,-0.00000822,-0.0000
 1465,0.00000906,0.00001214,-0.00006015,-0.00013110,-0.00001605,-0.0000
 3526,-0.00009142,0.00000950,-0.00059904,0.00076976,-0.00014363,-0.0001
 8081,0.00027654,-0.00012536,0.00073086,0.00005740,-0.00039865,-0.00103
 750,0.00056205,0.00035646,-0.12076167,0.04581267,-0.00003807,0.0001418
 4,0.00012500,0.00053154,-0.00019630,-0.00033176,-0.00158853,-0.0028435
 9,-0.00663952,-0.04106565,0.00944725,-0.00386614,0.03542212,-0.0271307
 5,-0.03447764,0.00014673,-0.00001252,0.00000467,-0.00001196,-0.0000031
 6,0.00000235,0.00005916,0.00002562,0.00000399,0.00006238,0.00012884,0.
 00013092,-0.00028932,-0.00020318,0.00064021,-0.00197613,0.00024840,0.0
 0025348,0.00047964,0.00004563,-0.00011186,-0.00014664,0.00085633,0.000
 30443,0.00044468,-0.00067377,0.00092589,0.00797005,0.02016935,0.043035
 99||0.00000921,0.00000387,0.00000773,-0.00000153,0.00000720,-0.0000155
 7,-0.00002151,-0.00001098,-0.00000167,0.00005032,0.00004358,0.00010000
 ,-0.00001802,-0.00004275,-0.00006897,-0.00000512,0.00000997,0.00000214
 ,0.00000204,0.00000056,0.00000867,-0.00000316,-0.00000085,0.00000123,-
 0.00000399,-0.00000009,0.00000090,0.00000597,-0.00000229,-0.00000027,-
 0.00000010,0.00000373,0.00000050,0.00000525,-0.00000083,0.00000217,-0.
 00000396,-0.00000215,-0.00001846,-0.00001760,-0.00000891,-0.00002016,0
 .00000222,-0.00000005,0.00000177|||@


 LET US LEARN TO DREAM, GENTLEMEN, THEN PERHAPS WE SHALL
 DISCOVER THE TRUTH;  BUT LET US BEWARE OF PUBLISHING
 OUR DREAMS ABROAD BEFORE THEY HAVE BEEN SCRUTINIZED
 BY OUR VIGILANT INTELLECT ... LET US ALWAYS ALLOW
 THE FRUIT TO HANG UNTIL IT IS RIPE.  UNRIPE FRUIT
 BRINGS EVEN THE GROWER BUT LITTLE PROFIT; IT DAMAGES
 THE HEALTH OF THOSE WHO CONSUME IT; IT ENDANGERS
 PARTICULARLY THE YOUTH WHO CANNOT YET DISTINGUISH
 BETWEEN RIPE AND UNRIPE FRUIT.

                                  -- KEKULE, 1890
 Job cpu time:       0 days  0 hours  1 minutes  1.0 seconds.
 File lengths (MBytes):  RWF=     20 Int=      0 D2E=      0 Chk=      2 Scr=      1
 Normal termination of Gaussian 09 at Fri Mar 20 17:26:32 2026.
