 Entering Gaussian System, Link 0=C:\G09W\g09.exe
 Input=1-butanol_ml.com
 Output=C:\workspace\delta_chem\data\raw\benchmark_new\1-butanol\1-butanol_ml.out
 Initial command:
 C:\G09W\l1.exe ".\Gau-17556.inp" "C:\workspace\delta_chem\data\raw\benchmark_new\1-butanol\1-butanol_ml.out" /scrdir=".\"
 Entering Link 1 = C:\G09W\l1.exe PID=     10988.
  
 Copyright (c) 1988,1990,1992,1993,1995,1998,2003,2009,2013,
            Gaussian, Inc.  All Rights Reserved.
  
 This is part of the Gaussian(R) 09 program.  It is based on
 the Gaussian(R) 03 system (copyright 2003, Gaussian, Inc.),
 the Gaussian(R) 98 system (copyright 1998, Gaussian, Inc.),
 the Gaussian(R) 94 system (copyright 1995, Gaussian, Inc.),
 the Gaussian 92(TM) system (copyright 1992, Gaussian, Inc.),
 the Gaussian 90(TM) system (copyright 1990, Gaussian, Inc.),
 the Gaussian 88(TM) system (copyright 1988, Gaussian, Inc.),
 the Gaussian 86(TM) system (copyright 1986, Carnegie Mellon
 University), and the Gaussian 82(TM) system (copyright 1983,
 Carnegie Mellon University). Gaussian is a federally registered
 trademark of Gaussian, Inc.
  
 This software contains proprietary and confidential information,
 including trade secrets, belonging to Gaussian, Inc.
  
 This software is provided under written license and may be
 used, copied, transmitted, or stored only in accord with that
 written license.
  
 The following legend is applicable only to US Government
 contracts under FAR:
  
                    RESTRICTED RIGHTS LEGEND
  
 Use, reproduction and disclosure by the US Government is
 subject to restrictions as set forth in subparagraphs (a)
 and (c) of the Commercial Computer Software - Restricted
 Rights clause in FAR 52.227-19.
  
 Gaussian, Inc.
 340 Quinnipiac St., Bldg. 40, Wallingford CT 06492
  
  
 ---------------------------------------------------------------
 Warning -- This program may not be used in any manner that
 competes with the business of Gaussian, Inc. or will provide
 assistance to any competitor of Gaussian, Inc.  The licensee
 of this program is prohibited from giving any competitor of
 Gaussian, Inc. access to this program.  By using this program,
 the user acknowledges that Gaussian, Inc. is engaged in the
 business of creating and licensing software in the field of
 computational chemistry and represents and warrants to the
 licensee that it is not a competitor of Gaussian, Inc. and that
 it will not use this program in any manner prohibited above.
 ---------------------------------------------------------------
  

 Cite this work as:
 Gaussian 09, Revision D.01,
 M. J. Frisch, G. W. Trucks, H. B. Schlegel, G. E. Scuseria, 
 M. A. Robb, J. R. Cheeseman, G. Scalmani, V. Barone, B. Mennucci, 
 G. A. Petersson, H. Nakatsuji, M. Caricato, X. Li, H. P. Hratchian, 
 A. F. Izmaylov, J. Bloino, G. Zheng, J. L. Sonnenberg, M. Hada, 
 M. Ehara, K. Toyota, R. Fukuda, J. Hasegawa, M. Ishida, T. Nakajima, 
 Y. Honda, O. Kitao, H. Nakai, T. Vreven, J. A. Montgomery, Jr., 
 J. E. Peralta, F. Ogliaro, M. Bearpark, J. J. Heyd, E. Brothers, 
 K. N. Kudin, V. N. Staroverov, T. Keith, R. Kobayashi, J. Normand, 
 K. Raghavachari, A. Rendell, J. C. Burant, S. S. Iyengar, J. Tomasi, 
 M. Cossi, N. Rega, J. M. Millam, M. Klene, J. E. Knox, J. B. Cross, 
 V. Bakken, C. Adamo, J. Jaramillo, R. Gomperts, R. E. Stratmann, 
 O. Yazyev, A. J. Austin, R. Cammi, C. Pomelli, J. W. Ochterski, 
 R. L. Martin, K. Morokuma, V. G. Zakrzewski, G. A. Voth, 
 P. Salvador, J. J. Dannenberg, S. Dapprich, A. D. Daniels, 
 O. Farkas, J. B. Foresman, J. V. Ortiz, J. Cioslowski, 
 and D. J. Fox, Gaussian, Inc., Wallingford CT, 2013.
 
 ******************************************
 Gaussian 09:  EM64W-G09RevD.01 13-Apr-2013
                20-Mar-2026 
 ******************************************
 %NProcShared=4
 Will use up to    4 processors via shared memory.
 %Mem=4GB
 %Chk=1-butanol_ml.chk
 --------------------------
 #p opt freq B3LYP/6-31G(d)
 --------------------------
 1/14=-1,18=20,19=15,26=3,38=1/1,3;
 2/9=110,12=2,17=6,18=5,40=1/2;
 3/5=1,6=6,7=1,11=2,16=1,25=1,30=1,71=1,74=-5/1,2,3;
 4//1;
 5/5=2,38=5/2;
 6/7=2,8=2,9=2,10=2,28=1/1;
 7//1,2,3,16;
 1/14=-1,18=20,19=15,26=3/3(2);
 2/9=110/2;
 99//99;
 2/9=110/2;
 3/5=1,6=6,7=1,11=2,16=1,25=1,30=1,71=1,74=-5/1,2,3;
 4/5=5,16=3,69=1/1;
 5/5=2,38=5/2;
 7//1,2,3,16;
 1/14=-1,18=20,19=15,26=3/3(-5);
 2/9=110/2;
 6/7=2,8=2,9=2,10=2,19=2,28=1/1;
 99/9=1/99;
 Leave Link    1 at Fri Mar 20 17:26:32 2026, MaxMem=   536870912 cpu:         0.0
 (Enter C:\G09W\l101.exe)
 ------------
 1-butanol ml
 ------------
 Symbolic Z-matrix:
 Charge =  0 Multiplicity = 1
 C                    -2.0811   -0.28367   0.54435 
 C                    -0.58615  -0.62154   0.53317 
 C                     0.1294    0.09057  -0.61971 
 C                     1.61442  -0.26397  -0.66379 
 O                     2.2576    0.20539   0.51461 
 H                    -2.56197  -0.59599  -0.39111 
 H                    -2.23949   0.79472   0.6702 
 H                    -2.58029  -0.79948   1.37164 
 H                    -0.47538  -1.70719   0.4371 
 H                    -0.15915  -0.32645   1.49497 
 H                    -0.34275  -0.19063  -1.57864 
 H                     0.01414   1.17425  -0.49051 
 H                     2.07921   0.21806  -1.5301 
 H                     1.75381  -1.34744  -0.74082 
 H                     3.19241  -0.03551   0.43474 
 
 NAtoms=     15 NQM=       15 NQMF=       0 NMMI=      0 NMMIF=      0
                NMic=       0 NMicF=      0.
                    Isotopes and Nuclear Properties:
 (Nuclear quadrupole moments (NQMom) in fm**2, nuclear magnetic moments (NMagM)
  in nuclear magnetons)

  Atom         1           2           3           4           5           6           7           8           9          10
 IAtWgt=          12          12          12          12          16           1           1           1           1           1
 AtmWgt=  12.0000000  12.0000000  12.0000000  12.0000000  15.9949146   1.0078250   1.0078250   1.0078250   1.0078250   1.0078250
 NucSpn=           0           0           0           0           0           1           1           1           1           1
 AtZEff=   0.0000000   0.0000000   0.0000000   0.0000000   0.0000000   0.0000000   0.0000000   0.0000000   0.0000000   0.0000000
 NQMom=    0.0000000   0.0000000   0.0000000   0.0000000   0.0000000   0.0000000   0.0000000   0.0000000   0.0000000   0.0000000
 NMagM=    0.0000000   0.0000000   0.0000000   0.0000000   0.0000000   2.7928460   2.7928460   2.7928460   2.7928460   2.7928460
 AtZNuc=   6.0000000   6.0000000   6.0000000   6.0000000   8.0000000   1.0000000   1.0000000   1.0000000   1.0000000   1.0000000

  Atom        11          12          13          14          15
 IAtWgt=           1           1           1           1           1
 AtmWgt=   1.0078250   1.0078250   1.0078250   1.0078250   1.0078250
 NucSpn=           1           1           1           1           1
 AtZEff=   0.0000000   0.0000000   0.0000000   0.0000000   0.0000000
 NQMom=    0.0000000   0.0000000   0.0000000   0.0000000   0.0000000
 NMagM=    2.7928460   2.7928460   2.7928460   2.7928460   2.7928460
 AtZNuc=   1.0000000   1.0000000   1.0000000   1.0000000   1.0000000
 Leave Link  101 at Fri Mar 20 17:26:33 2026, MaxMem=   536870912 cpu:         1.0
 (Enter C:\G09W\l103.exe)

 GradGradGradGradGradGradGradGradGradGradGradGradGradGradGradGradGradGrad
 Berny optimization.
 Initialization pass.
                           ----------------------------
                           !    Initial Parameters    !
                           ! (Angstroms and Degrees)  !
 --------------------------                            --------------------------
 ! Name  Definition              Value          Derivative Info.                !
 --------------------------------------------------------------------------------
 ! R1    R(1,2)                  1.5327         estimate D2E/DX2                !
 ! R2    R(1,6)                  1.0972         estimate D2E/DX2                !
 ! R3    R(1,7)                  1.0972         estimate D2E/DX2                !
 ! R4    R(1,8)                  1.0953         estimate D2E/DX2                !
 ! R5    R(2,3)                  1.5324         estimate D2E/DX2                !
 ! R6    R(2,9)                  1.0955         estimate D2E/DX2                !
 ! R7    R(2,10)                 1.0929         estimate D2E/DX2                !
 ! R8    R(3,4)                  1.5274         estimate D2E/DX2                !
 ! R9    R(3,11)                 1.1052         estimate D2E/DX2                !
 ! R10   R(3,12)                 1.0974         estimate D2E/DX2                !
 ! R11   R(4,5)                  1.4222         estimate D2E/DX2                !
 ! R12   R(4,13)                 1.0949         estimate D2E/DX2                !
 ! R13   R(4,14)                 1.0951         estimate D2E/DX2                !
 ! R14   R(5,15)                 0.9686         estimate D2E/DX2                !
 ! A1    A(2,1,6)              111.0083         estimate D2E/DX2                !
 ! A2    A(2,1,7)              110.9956         estimate D2E/DX2                !
 ! A3    A(2,1,8)              110.257          estimate D2E/DX2                !
 ! A4    A(6,1,7)              108.318          estimate D2E/DX2                !
 ! A5    A(6,1,8)              108.07           estimate D2E/DX2                !
 ! A6    A(7,1,8)              108.0857         estimate D2E/DX2                !
 ! A7    A(1,2,3)              111.0078         estimate D2E/DX2                !
 ! A8    A(1,2,9)              108.5251         estimate D2E/DX2                !
 ! A9    A(1,2,10)             108.3693         estimate D2E/DX2                !
 ! A10   A(3,2,9)              110.3238         estimate D2E/DX2                !
 ! A11   A(3,2,10)             110.7426         estimate D2E/DX2                !
 ! A12   A(9,2,10)             107.7733         estimate D2E/DX2                !
 ! A13   A(2,3,4)              111.5823         estimate D2E/DX2                !
 ! A14   A(2,3,11)             109.5754         estimate D2E/DX2                !
 ! A15   A(2,3,12)             108.7398         estimate D2E/DX2                !
 ! A16   A(4,3,11)             109.3443         estimate D2E/DX2                !
 ! A17   A(4,3,12)             109.5554         estimate D2E/DX2                !
 ! A18   A(11,3,12)            107.9699         estimate D2E/DX2                !
 ! A19   A(3,4,5)              109.8275         estimate D2E/DX2                !
 ! A20   A(3,4,13)             109.473          estimate D2E/DX2                !
 ! A21   A(3,4,14)             110.8203         estimate D2E/DX2                !
 ! A22   A(5,4,13)             108.561          estimate D2E/DX2                !
 ! A23   A(5,4,14)             109.1012         estimate D2E/DX2                !
 ! A24   A(13,4,14)            109.0176         estimate D2E/DX2                !
 ! A25   A(4,5,15)             106.6217         estimate D2E/DX2                !
 ! D1    D(6,1,2,3)             60.2054         estimate D2E/DX2                !
 ! D2    D(6,1,2,9)            -61.1983         estimate D2E/DX2                !
 ! D3    D(6,1,2,10)          -177.9731         estimate D2E/DX2                !
 ! D4    D(7,1,2,3)            -60.3248         estimate D2E/DX2                !
 ! D5    D(7,1,2,9)            178.2715         estimate D2E/DX2                !
 ! D6    D(7,1,2,10)            61.4967         estimate D2E/DX2                !
 ! D7    D(8,1,2,3)            179.9345         estimate D2E/DX2                !
 ! D8    D(8,1,2,9)             58.5308         estimate D2E/DX2                !
 ! D9    D(8,1,2,10)           -58.244          estimate D2E/DX2                !
 ! D10   D(1,2,3,4)           -178.6105         estimate D2E/DX2                !
 ! D11   D(1,2,3,11)           -57.3631         estimate D2E/DX2                !
 ! D12   D(1,2,3,12)            60.4385         estimate D2E/DX2                !
 ! D13   D(9,2,3,4)            -58.2678         estimate D2E/DX2                !
 ! D14   D(9,2,3,11)            62.9796         estimate D2E/DX2                !
 ! D15   D(9,2,3,12)          -179.2188         estimate D2E/DX2                !
 ! D16   D(10,2,3,4)            60.9644         estimate D2E/DX2                !
 ! D17   D(10,2,3,11)         -177.7882         estimate D2E/DX2                !
 ! D18   D(10,2,3,12)          -59.9866         estimate D2E/DX2                !
 ! D19   D(2,3,4,5)            -63.9905         estimate D2E/DX2                !
 ! D20   D(2,3,4,13)           176.9056         estimate D2E/DX2                !
 ! D21   D(2,3,4,14)            56.625          estimate D2E/DX2                !
 ! D22   D(11,3,4,5)           174.6279         estimate D2E/DX2                !
 ! D23   D(11,3,4,13)           55.5239         estimate D2E/DX2                !
 ! D24   D(11,3,4,14)          -64.7566         estimate D2E/DX2                !
 ! D25   D(12,3,4,5)            56.4838         estimate D2E/DX2                !
 ! D26   D(12,3,4,13)          -62.6202         estimate D2E/DX2                !
 ! D27   D(12,3,4,14)          177.0992         estimate D2E/DX2                !
 ! D28   D(3,4,5,15)          -179.4957         estimate D2E/DX2                !
 ! D29   D(13,4,5,15)          -59.8336         estimate D2E/DX2                !
 ! D30   D(14,4,5,15)           58.8551         estimate D2E/DX2                !
 --------------------------------------------------------------------------------
 Trust Radius=3.00D-01 FncErr=1.00D-07 GrdErr=1.00D-06
 Number of steps in this run=     79 maximum allowed number of steps=    100.
 GradGradGradGradGradGradGradGradGradGradGradGradGradGradGradGradGradGrad

 Leave Link  103 at Fri Mar 20 17:26:33 2026, MaxMem=   536870912 cpu:         0.0
 (Enter C:\G09W\l202.exe)
                          Input orientation:                          
 ---------------------------------------------------------------------
 Center     Atomic      Atomic             Coordinates (Angstroms)
 Number     Number       Type             X           Y           Z
 ---------------------------------------------------------------------
      1          6           0       -2.081101   -0.283673    0.544354
      2          6           0       -0.586149   -0.621541    0.533173
      3          6           0        0.129395    0.090568   -0.619708
      4          6           0        1.614415   -0.263967   -0.663786
      5          8           0        2.257600    0.205390    0.514614
      6          1           0       -2.561967   -0.595993   -0.391107
      7          1           0       -2.239487    0.794722    0.670196
      8          1           0       -2.580285   -0.799479    1.371642
      9          1           0       -0.475378   -1.707192    0.437095
     10          1           0       -0.159147   -0.326448    1.494965
     11          1           0       -0.342748   -0.190628   -1.578641
     12          1           0        0.014139    1.174254   -0.490508
     13          1           0        2.079205    0.218057   -1.530102
     14          1           0        1.753811   -1.347439   -0.740824
     15          1           0        3.192406   -0.035514    0.434742
 ---------------------------------------------------------------------
                    Distance matrix (angstroms):
                    1          2          3          4          5
     1  C    0.000000
     2  C    1.532697   0.000000
     3  C    2.526141   1.532396   0.000000
     4  C    3.888037   2.530425   1.527391   0.000000
     5  O    4.366279   2.961599   2.414359   1.422185   0.000000
     6  H    1.097207   2.181468   2.786943   4.198424   4.968981
     7  H    1.097205   2.181308   2.787703   4.213418   4.538206
     8  H    1.095283   2.170546   3.478509   4.693106   5.014917
     9  H    2.148548   1.095509   2.171295   2.768045   3.336637
    10  H    2.144621   1.092911   2.174627   2.794572   2.661692
    11  H    2.745476   2.169029   1.105234   2.161672   3.361600
    12  H    2.754364   2.152475   1.097430   2.158562   2.642364
    13  H    4.675815   3.473635   2.155651   1.094934   2.052523
    14  H    4.182084   2.761414   2.172846   1.095115   2.059419
    15  H    5.280480   3.824996   3.241882   1.936236   0.968647
                    6          7          8          9         10
     6  H    0.000000
     7  H    1.778889   0.000000
     8  H    1.774550   1.774724   0.000000
     9  H    2.504902   3.070178   2.475471   0.000000
    10  H    3.066507   2.503014   2.469995   1.767921   0.000000
    11  H    2.549410   3.102548   3.752525   2.526014   3.082079
    12  H    3.127295   2.563222   3.754232   3.066399   2.494842
    13  H    4.847728   4.881081   5.582683   3.755309   3.802333
    14  H    4.394646   4.746184   4.852542   2.546802   3.114576
    15  H    5.840289   5.500017   5.897914   4.030776   3.527268
                   11         12         13         14         15
    11  H    0.000000
    12  H    1.781658   0.000000
    13  H    2.456672   2.501912   0.000000
    14  H    2.536870   3.073768   1.783149   0.000000
    15  H    4.071251   3.524345   2.272471   2.274348   0.000000
 Stoichiometry    C4H10O
 Framework group  C1[X(C4H10O)]
 Deg. of freedom    39
 Full point group                 C1      NOp   1
 Largest Abelian subgroup         C1      NOp   1
 Largest concise Abelian subgroup C1      NOp   1
                         Standard orientation:                         
 ---------------------------------------------------------------------
 Center     Atomic      Atomic             Coordinates (Angstroms)
 Number     Number       Type             X           Y           Z
 ---------------------------------------------------------------------
      1          6           0        2.392042   -0.138801   -0.122515
      2          6           0        0.946633   -0.370896    0.331454
      3          6           0        0.015245    0.710576   -0.226374
      4          6           0       -1.423508    0.511253    0.246045
      5          8           0       -1.933863   -0.713705   -0.265448
      6          1           0        2.762489    0.833407    0.225973
      7          1           0        2.469518   -0.165304   -1.216660
      8          1           0        3.046741   -0.917278    0.283672
      9          1           0        0.920942   -0.367260    1.426655
     10          1           0        0.634541   -1.362352   -0.006282
     11          1           0        0.371007    1.706808    0.093778
     12          1           0        0.050195    0.674783   -1.322663
     13          1           0       -2.046766    1.330967   -0.126108
     14          1           0       -1.474941    0.492042    1.339783
     15          1           0       -2.845293   -0.788967    0.053779
 ---------------------------------------------------------------------
 Rotational constants (GHZ):     12.6322580      2.3641057      2.1840401
 Leave Link  202 at Fri Mar 20 17:26:33 2026, MaxMem=   536870912 cpu:         0.0
 (Enter C:\G09W\l301.exe)
 Standard basis: 6-31G(d) (6D, 7F)
 Ernie: Thresh=  0.10000D-02 Tol=  0.10000D-05 Strict=F.
 There are    95 symmetry adapted cartesian basis functions of A   symmetry.
 There are    95 symmetry adapted basis functions of A   symmetry.
    95 basis functions,   180 primitive gaussians,    95 cartesian basis functions
    21 alpha electrons       21 beta electrons
       nuclear repulsion energy       187.7671971586 Hartrees.
 IExCor=  402 DFT=T Ex+Corr=B3LYP ExCW=0 ScaHFX=  0.200000
 ScaDFX=  0.800000  0.720000  1.000000  0.810000 ScalE2=  1.000000  1.000000
 IRadAn=      0 IRanWt=     -1 IRanGd=            0 ICorTp=0 IEmpDi=  4
 NAtoms=   15 NActive=   15 NUniq=   15 SFac= 1.00D+00 NAtFMM=   60 NAOKFM=F Big=F
 Integral buffers will be    131072 words long.
 Raffenetti 2 integral format.
 Two-electron integral symmetry is turned on.
 Leave Link  301 at Fri Mar 20 17:26:33 2026, MaxMem=   536870912 cpu:         0.0
 (Enter C:\G09W\l302.exe)
 NPDir=0 NMtPBC=     1 NCelOv=     1 NCel=       1 NClECP=     1 NCelD=      1
         NCelK=      1 NCelE2=     1 NClLst=     1 CellRange=     0.0.
 One-electron integrals computed using PRISM.
 NBasis=    95 RedAO= T EigKep=  4.12D-03  NBF=    95
 NBsUse=    95 1.00D-06 EigRej= -1.00D+00 NBFU=    95
 Precomputing XC quadrature grid using
 IXCGrd= 4 IRadAn=           0 IRanWt=          -1 IRanGd=           0 AccXCQ= 0.00D+00.
 Generated NRdTot=       0 NPtTot=           0 NUsed=           0 NTot=          32
 NSgBfM=    95    95    95    95    95 MxSgAt=    15 MxSgA2=    15.
 Leave Link  302 at Fri Mar 20 17:26:34 2026, MaxMem=   536870912 cpu:         1.0
 (Enter C:\G09W\l303.exe)
 DipDrv:  MaxL=1.
 Leave Link  303 at Fri Mar 20 17:26:34 2026, MaxMem=   536870912 cpu:         0.0
 (Enter C:\G09W\l401.exe)
 ExpMin= 1.61D-01 ExpMax= 5.48D+03 ExpMxC= 8.25D+02 IAcc=1 IRadAn=         1 AccDes= 0.00D+00
 Harris functional with IExCor=  402 and IRadAn=       1 diagonalized for initial guess.
 HarFok:  IExCor=  402 AccDes= 0.00D+00 IRadAn=         1 IDoV= 1 UseB2=F ITyADJ=14
 ICtDFT=  3500011 ScaDFX=  1.000000  1.000000  1.000000  1.000000
 FoFCou: FMM=F IPFlag=           0 FMFlag=      100000 FMFlg1=           0
         NFxFlg=           0 DoJE=T BraDBF=F KetDBF=T FulRan=T
         wScrn=  0.000000 ICntrl=     500 IOpCl=  0 I1Cent=   200000004 NGrid=           0
         NMat0=    1 NMatS0=      1 NMatT0=    0 NMatD0=    1 NMtDS0=    0 NMtDT0=    0
 Petite list used in FoFCou.
 Harris En= -233.721947844149    
 JPrj=0 DoOrth=F DoCkMO=F.
 Leave Link  401 at Fri Mar 20 17:26:34 2026, MaxMem=   536870912 cpu:         0.0
 (Enter C:\G09W\l502.exe)
 Closed shell SCF:
 Using DIIS extrapolation, IDIIS=  1040.
 Integral symmetry usage will be decided dynamically.
 Keep R1 ints in memory in canonical form, NReq=11361312.
 IVT=       46930 IEndB=       46930 NGot=   536870912 MDV=   526424903
 LenX=   526424903 LenY=   526415437
 Requested convergence on RMS density matrix=1.00D-08 within 128 cycles.
 Requested convergence on MAX density matrix=1.00D-06.
 Requested convergence on             energy=1.00D-06.
 No special actions if energy rises.
 FoFCou: FMM=F IPFlag=           0 FMFlag=           0 FMFlg1=           0
         NFxFlg=           0 DoJE=F BraDBF=F KetDBF=F FulRan=T
         wScrn=  0.000000 ICntrl=     600 IOpCl=  0 I1Cent=           0 NGrid=           0
         NMat0=    1 NMatS0=   4560 NMatT0=    0 NMatD0=    1 NMtDS0=    0 NMtDT0=    0
 Symmetry not used in FoFCou.
 Integral accuracy reduced to 1.0D-05 until final iterations.

 Cycle   1  Pass 0  IDiag  1:
 E= -233.451841387093    
 DIIS: error= 4.01D-02 at cycle   1 NSaved=   1.
 NSaved= 1 IEnMin= 1 EnMin= -233.451841387093     IErMin= 1 ErrMin= 4.01D-02
 ErrMax= 4.01D-02  0.00D+00 EMaxC= 1.00D-01 BMatC= 2.03D-01 BMatP= 2.03D-01
 IDIUse=3 WtCom= 5.99D-01 WtEn= 4.01D-01
 Coeff-Com:  0.100D+01
 Coeff-En:   0.100D+01
 Coeff:      0.100D+01
 Gap=     0.276 Goal=   None    Shift=    0.000
 GapD=    0.276 DampG=1.000 DampE=0.500 DampFc=0.5000 IDamp=-1.
 Damping current iteration by 5.00D-01
 RMSDP=1.10D-02 MaxDP=1.39D-01              OVMax= 1.78D-01

 Cycle   2  Pass 0  IDiag  1:
 E= -233.539311845362     Delta-E=       -0.087470458269 Rises=F Damp=T
 DIIS: error= 8.78D-03 at cycle   2 NSaved=   2.
 NSaved= 2 IEnMin= 2 EnMin= -233.539311845362     IErMin= 2 ErrMin= 8.78D-03
 ErrMax= 8.78D-03  0.00D+00 EMaxC= 1.00D-01 BMatC= 1.09D-02 BMatP= 2.03D-01
 IDIUse=3 WtCom= 9.12D-01 WtEn= 8.78D-02
 Coeff-Com:  0.113D+00 0.887D+00
 Coeff-En:   0.173D+00 0.827D+00
 Coeff:      0.118D+00 0.882D+00
 Gap=     0.341 Goal=   None    Shift=    0.000
 RMSDP=1.69D-03 MaxDP=2.48D-02 DE=-8.75D-02 OVMax= 9.44D-02

 Cycle   3  Pass 0  IDiag  1:
 E= -233.658149001696     Delta-E=       -0.118837156334 Rises=F Damp=F
 DIIS: error= 5.48D-03 at cycle   3 NSaved=   3.
 NSaved= 3 IEnMin= 3 EnMin= -233.658149001696     IErMin= 3 ErrMin= 5.48D-03
 ErrMax= 5.48D-03  0.00D+00 EMaxC= 1.00D-01 BMatC= 2.33D-03 BMatP= 1.09D-02
 IDIUse=3 WtCom= 9.45D-01 WtEn= 5.48D-02
 Coeff-Com:  0.165D-01 0.283D+00 0.701D+00
 Coeff-En:   0.000D+00 0.000D+00 0.100D+01
 Coeff:      0.156D-01 0.267D+00 0.717D+00
 Gap=     0.331 Goal=   None    Shift=    0.000
 RMSDP=6.64D-04 MaxDP=1.42D-02 DE=-1.19D-01 OVMax= 1.35D-02

 Cycle   4  Pass 0  IDiag  1:
 E= -233.659173796315     Delta-E=       -0.001024794619 Rises=F Damp=F
 DIIS: error= 3.28D-03 at cycle   4 NSaved=   4.
 NSaved= 4 IEnMin= 4 EnMin= -233.659173796315     IErMin= 4 ErrMin= 3.28D-03
 ErrMax= 3.28D-03  0.00D+00 EMaxC= 1.00D-01 BMatC= 1.08D-03 BMatP= 2.33D-03
 IDIUse=3 WtCom= 9.67D-01 WtEn= 3.28D-02
 Coeff-Com: -0.276D-03 0.532D-01 0.410D+00 0.537D+00
 Coeff-En:   0.000D+00 0.000D+00 0.319D+00 0.681D+00
 Coeff:     -0.267D-03 0.514D-01 0.407D+00 0.542D+00
 Gap=     0.334 Goal=   None    Shift=    0.000
 RMSDP=2.91D-04 MaxDP=6.49D-03 DE=-1.02D-03 OVMax= 5.58D-03

 Cycle   5  Pass 0  IDiag  1:
 E= -233.660007626321     Delta-E=       -0.000833830006 Rises=F Damp=F
 DIIS: error= 3.28D-04 at cycle   5 NSaved=   5.
 NSaved= 5 IEnMin= 5 EnMin= -233.660007626321     IErMin= 5 ErrMin= 3.28D-04
 ErrMax= 3.28D-04  0.00D+00 EMaxC= 1.00D-01 BMatC= 1.57D-05 BMatP= 1.08D-03
 IDIUse=3 WtCom= 9.97D-01 WtEn= 3.28D-03
 Coeff-Com: -0.334D-03 0.156D-02 0.997D-01 0.185D+00 0.714D+00
 Coeff-En:   0.000D+00 0.000D+00 0.000D+00 0.000D+00 0.100D+01
 Coeff:     -0.333D-03 0.156D-02 0.993D-01 0.185D+00 0.715D+00
 Gap=     0.334 Goal=   None    Shift=    0.000
 RMSDP=4.60D-05 MaxDP=5.74D-04 DE=-8.34D-04 OVMax= 7.98D-04

 Cycle   6  Pass 0  IDiag  1:
 E= -233.660020157300     Delta-E=       -0.000012530979 Rises=F Damp=F
 DIIS: error= 6.94D-05 at cycle   6 NSaved=   6.
 NSaved= 6 IEnMin= 6 EnMin= -233.660020157300     IErMin= 6 ErrMin= 6.94D-05
 ErrMax= 6.94D-05  0.00D+00 EMaxC= 1.00D-01 BMatC= 1.12D-06 BMatP= 1.57D-05
 IDIUse=1 WtCom= 1.00D+00 WtEn= 0.00D+00
 Coeff-Com: -0.892D-04-0.703D-03 0.389D-01 0.782D-01 0.353D+00 0.530D+00
 Coeff:     -0.892D-04-0.703D-03 0.389D-01 0.782D-01 0.353D+00 0.530D+00
 Gap=     0.334 Goal=   None    Shift=    0.000
 RMSDP=1.04D-05 MaxDP=2.00D-04 DE=-1.25D-05 OVMax= 2.15D-04

 Cycle   7  Pass 0  IDiag  1:
 E= -233.660021189183     Delta-E=       -0.000001031884 Rises=F Damp=F
 DIIS: error= 1.01D-05 at cycle   7 NSaved=   7.
 NSaved= 7 IEnMin= 7 EnMin= -233.660021189183     IErMin= 7 ErrMin= 1.01D-05
 ErrMax= 1.01D-05  0.00D+00 EMaxC= 1.00D-01 BMatC= 2.47D-08 BMatP= 1.12D-06
 IDIUse=1 WtCom= 1.00D+00 WtEn= 0.00D+00
 Coeff-Com:  0.281D-04-0.409D-03 0.581D-02 0.130D-01 0.677D-01 0.174D+00
 Coeff-Com:  0.740D+00
 Coeff:      0.281D-04-0.409D-03 0.581D-02 0.130D-01 0.677D-01 0.174D+00
 Coeff:      0.740D+00
 Gap=     0.334 Goal=   None    Shift=    0.000
 RMSDP=1.82D-06 MaxDP=2.86D-05 DE=-1.03D-06 OVMax= 3.25D-05

 Initial convergence to 1.0D-05 achieved.  Increase integral accuracy.
 Cycle   8  Pass 1  IDiag  1:
 E= -233.659991784740     Delta-E=        0.000029404444 Rises=F Damp=F
 DIIS: error= 6.36D-06 at cycle   1 NSaved=   1.
 NSaved= 1 IEnMin= 1 EnMin= -233.659991784740     IErMin= 1 ErrMin= 6.36D-06
 ErrMax= 6.36D-06  0.00D+00 EMaxC= 1.00D-01 BMatC= 1.32D-08 BMatP= 1.32D-08
 IDIUse=1 WtCom= 1.00D+00 WtEn= 0.00D+00
 Coeff-Com:  0.100D+01
 Coeff:      0.100D+01
 Gap=     0.334 Goal=   None    Shift=    0.000
 RMSDP=1.82D-06 MaxDP=2.86D-05 DE= 2.94D-05 OVMax= 3.21D-05

 Cycle   9  Pass 1  IDiag  1:
 E= -233.659991801677     Delta-E=       -0.000000016937 Rises=F Damp=F
 DIIS: error= 2.24D-06 at cycle   2 NSaved=   2.
 NSaved= 2 IEnMin= 2 EnMin= -233.659991801677     IErMin= 2 ErrMin= 2.24D-06
 ErrMax= 2.24D-06  0.00D+00 EMaxC= 1.00D-01 BMatC= 7.63D-10 BMatP= 1.32D-08
 IDIUse=1 WtCom= 1.00D+00 WtEn= 0.00D+00
 Coeff-Com:  0.707D-01 0.929D+00
 Coeff:      0.707D-01 0.929D+00
 Gap=     0.334 Goal=   None    Shift=    0.000
 RMSDP=5.70D-07 MaxDP=1.02D-05 DE=-1.69D-08 OVMax= 1.03D-05

 Cycle  10  Pass 1  IDiag  1:
 E= -233.659991801892     Delta-E=       -0.000000000215 Rises=F Damp=F
 DIIS: error= 2.39D-06 at cycle   3 NSaved=   3.
 NSaved= 3 IEnMin= 3 EnMin= -233.659991801892     IErMin= 2 ErrMin= 2.24D-06
 ErrMax= 2.39D-06  0.00D+00 EMaxC= 1.00D-01 BMatC= 6.29D-10 BMatP= 7.63D-10
 IDIUse=1 WtCom= 1.00D+00 WtEn= 0.00D+00
 Coeff-Com: -0.168D-01 0.477D+00 0.540D+00
 Coeff:     -0.168D-01 0.477D+00 0.540D+00
 Gap=     0.334 Goal=   None    Shift=    0.000
 RMSDP=2.45D-07 MaxDP=5.58D-06 DE=-2.15D-10 OVMax= 4.71D-06

 Cycle  11  Pass 1  IDiag  1:
 E= -233.659991802453     Delta-E=       -0.000000000561 Rises=F Damp=F
 DIIS: error= 3.34D-07 at cycle   4 NSaved=   4.
 NSaved= 4 IEnMin= 4 EnMin= -233.659991802453     IErMin= 4 ErrMin= 3.34D-07
 ErrMax= 3.34D-07  0.00D+00 EMaxC= 1.00D-01 BMatC= 1.83D-11 BMatP= 6.29D-10
 IDIUse=1 WtCom= 1.00D+00 WtEn= 0.00D+00
 Coeff-Com: -0.998D-02 0.176D+00 0.243D+00 0.591D+00
 Coeff:     -0.998D-02 0.176D+00 0.243D+00 0.591D+00
 Gap=     0.334 Goal=   None    Shift=    0.000
 RMSDP=5.37D-08 MaxDP=8.73D-07 DE=-5.61D-10 OVMax= 8.73D-07

 Cycle  12  Pass 1  IDiag  1:
 E= -233.659991802466     Delta-E=       -0.000000000013 Rises=F Damp=F
 DIIS: error= 1.28D-07 at cycle   5 NSaved=   5.
 NSaved= 5 IEnMin= 5 EnMin= -233.659991802466     IErMin= 5 ErrMin= 1.28D-07
 ErrMax= 1.28D-07  0.00D+00 EMaxC= 1.00D-01 BMatC= 1.19D-12 BMatP= 1.83D-11
 IDIUse=1 WtCom= 1.00D+00 WtEn= 0.00D+00
 Coeff-Com: -0.321D-02 0.475D-01 0.719D-01 0.256D+00 0.628D+00
 Coeff:     -0.321D-02 0.475D-01 0.719D-01 0.256D+00 0.628D+00
 Gap=     0.334 Goal=   None    Shift=    0.000
 RMSDP=1.27D-08 MaxDP=2.80D-07 DE=-1.26D-11 OVMax= 2.65D-07

 Cycle  13  Pass 1  IDiag  1:
 E= -233.659991802473     Delta-E=       -0.000000000007 Rises=F Damp=F
 DIIS: error= 4.31D-08 at cycle   6 NSaved=   6.
 NSaved= 6 IEnMin= 6 EnMin= -233.659991802473     IErMin= 6 ErrMin= 4.31D-08
 ErrMax= 4.31D-08  0.00D+00 EMaxC= 1.00D-01 BMatC= 1.93D-13 BMatP= 1.19D-12
 IDIUse=1 WtCom= 1.00D+00 WtEn= 0.00D+00
 Coeff-Com: -0.415D-03 0.182D-02 0.554D-02 0.542D-01 0.320D+00 0.619D+00
 Coeff:     -0.415D-03 0.182D-02 0.554D-02 0.542D-01 0.320D+00 0.619D+00
 Gap=     0.334 Goal=   None    Shift=    0.000
 RMSDP=4.14D-09 MaxDP=9.03D-08 DE=-7.45D-12 OVMax= 8.91D-08

 SCF Done:  E(RB3LYP) =  -233.659991802     A.U. after   13 cycles
            NFock= 13  Conv=0.41D-08     -V/T= 2.0094
 KE= 2.314850441903D+02 PE=-9.190944690095D+02 EE= 2.661822358581D+02
 Leave Link  502 at Fri Mar 20 17:26:42 2026, MaxMem=   536870912 cpu:         8.0
 (Enter C:\G09W\l601.exe)
 Copying SCF densities to generalized density rwf, IOpCl= 0 IROHF=0.

 **********************************************************************

            Population analysis using the SCF density.

 **********************************************************************

 Orbital symmetries:
       Occupied  (A) (A) (A) (A) (A) (A) (A) (A) (A) (A) (A) (A)
                 (A) (A) (A) (A) (A) (A) (A) (A) (A)
       Virtual   (A) (A) (A) (A) (A) (A) (A) (A) (A) (A) (A) (A)
                 (A) (A) (A) (A) (A) (A) (A) (A) (A) (A) (A) (A)
                 (A) (A) (A) (A) (A) (A) (A) (A) (A) (A) (A) (A)
                 (A) (A) (A) (A) (A) (A) (A) (A) (A) (A) (A) (A)
                 (A) (A) (A) (A) (A) (A) (A) (A) (A) (A) (A) (A)
                 (A) (A) (A) (A) (A) (A) (A) (A) (A) (A) (A) (A)
                 (A) (A)
 The electronic state is 1-A.
 Alpha  occ. eigenvalues --  -19.13568 -10.22353 -10.17657 -10.17039 -10.16643
 Alpha  occ. eigenvalues --   -1.01000  -0.78467  -0.71144  -0.61878  -0.56962
 Alpha  occ. eigenvalues --   -0.51063  -0.45793  -0.43769  -0.42220  -0.38188
 Alpha  occ. eigenvalues --   -0.37279  -0.34882  -0.33087  -0.32279  -0.30777
 Alpha  occ. eigenvalues --   -0.25904
 Alpha virt. eigenvalues --    0.07458   0.10642   0.12989   0.13994   0.15539
 Alpha virt. eigenvalues --    0.17455   0.18573   0.18978   0.19808   0.19987
 Alpha virt. eigenvalues --    0.22223   0.25811   0.25964   0.26407   0.51430
 Alpha virt. eigenvalues --    0.52284   0.54483   0.56029   0.57406   0.62038
 Alpha virt. eigenvalues --    0.64972   0.66820   0.69318   0.74674   0.78256
 Alpha virt. eigenvalues --    0.82146   0.85625   0.86469   0.88439   0.89066
 Alpha virt. eigenvalues --    0.91730   0.92545   0.94082   0.95560   0.97696
 Alpha virt. eigenvalues --    1.00121   1.00198   1.02140   1.06193   1.23380
 Alpha virt. eigenvalues --    1.27692   1.42306   1.43213   1.44734   1.58646
 Alpha virt. eigenvalues --    1.62279   1.69508   1.75563   1.76021   1.83455
 Alpha virt. eigenvalues --    1.88367   1.92099   1.96749   1.98931   2.03988
 Alpha virt. eigenvalues --    2.07268   2.14381   2.21831   2.27684   2.29917
 Alpha virt. eigenvalues --    2.35487   2.38142   2.42049   2.43767   2.49008
 Alpha virt. eigenvalues --    2.58776   2.69137   2.74005   2.86856   3.73797
 Alpha virt. eigenvalues --    4.14555   4.27410   4.38285   4.52780
          Condensed to atoms (all electrons):
               1          2          3          4          5          6
     1  C    5.072978   0.373971  -0.047734   0.004356   0.000094   0.375726
     2  C    0.373971   4.956071   0.381575  -0.038865   0.000451  -0.035087
     3  C   -0.047734   0.381575   5.023757   0.375877  -0.053345  -0.004748
     4  C    0.004356  -0.038865   0.375877   4.813481   0.245731  -0.000011
     5  O    0.000094   0.000451  -0.053345   0.245731   8.265327  -0.000002
     6  H    0.375726  -0.035087  -0.004748  -0.000011  -0.000002   0.586540
     7  H    0.378094  -0.034904  -0.004954   0.000083   0.000000  -0.032640
     8  H    0.372050  -0.030047   0.004611  -0.000175   0.000002  -0.031223
     9  H   -0.040375   0.375968  -0.041736  -0.003158  -0.000404  -0.004602
    10  H   -0.039201   0.383471  -0.036497  -0.005988   0.008116   0.005087
    11  H   -0.004036  -0.039043   0.362910  -0.032488   0.002780   0.005215
    12  H   -0.003584  -0.042536   0.367437  -0.032639   0.001952  -0.000332
    13  H   -0.000146   0.006323  -0.039690   0.364667  -0.041383  -0.000006
    14  H    0.000011  -0.011624  -0.038554   0.362000  -0.042895   0.000008
    15  H    0.000001   0.000113   0.006934  -0.023005   0.233293   0.000000
               7          8          9         10         11         12
     1  C    0.378094   0.372050  -0.040375  -0.039201  -0.004036  -0.003584
     2  C   -0.034904  -0.030047   0.375968   0.383471  -0.039043  -0.042536
     3  C   -0.004954   0.004611  -0.041736  -0.036497   0.362910   0.367437
     4  C    0.000083  -0.000175  -0.003158  -0.005988  -0.032488  -0.032639
     5  O    0.000000   0.000002  -0.000404   0.008116   0.002780   0.001952
     6  H   -0.032640  -0.031223  -0.004602   0.005087   0.005215  -0.000332
     7  H    0.578300  -0.030665   0.005423  -0.004450  -0.000411   0.004982
     8  H   -0.030665   0.581272  -0.002904  -0.002382   0.000005  -0.000043
     9  H    0.005423  -0.002904   0.615725  -0.036095  -0.004641   0.005833
    10  H   -0.004450  -0.002382  -0.036095   0.569242   0.005447  -0.004717
    11  H   -0.000411   0.000005  -0.004641   0.005447   0.611195  -0.033441
    12  H    0.004982  -0.000043   0.005833  -0.004717  -0.033441   0.592744
    13  H    0.000004   0.000003  -0.000047   0.000211  -0.000817  -0.005924
    14  H    0.000007  -0.000001   0.006003   0.000083   0.000042   0.006452
    15  H    0.000000   0.000000  -0.000035  -0.000336  -0.000285  -0.000100
              13         14         15
     1  C   -0.000146   0.000011   0.000001
     2  C    0.006323  -0.011624   0.000113
     3  C   -0.039690  -0.038554   0.006934
     4  C    0.364667   0.362000  -0.023005
     5  O   -0.041383  -0.042895   0.233293
     6  H   -0.000006   0.000008   0.000000
     7  H    0.000004   0.000007   0.000000
     8  H    0.000003  -0.000001   0.000000
     9  H   -0.000047   0.006003  -0.000035
    10  H    0.000211   0.000083  -0.000336
    11  H   -0.000817   0.000042  -0.000285
    12  H   -0.005924   0.006452  -0.000100
    13  H    0.661630  -0.056019  -0.004452
    14  H   -0.056019   0.662899  -0.004518
    15  H   -0.004452  -0.004518   0.401916
 Mulliken charges:
               1
     1  C   -0.442206
     2  C   -0.245836
     3  C   -0.255844
     4  C   -0.029866
     5  O   -0.619718
     6  H    0.136076
     7  H    0.141131
     8  H    0.139497
     9  H    0.125044
    10  H    0.158010
    11  H    0.127568
    12  H    0.143916
    13  H    0.115645
    14  H    0.116107
    15  H    0.390475
 Sum of Mulliken charges =   0.00000
 Mulliken charges with hydrogens summed into heavy atoms:
               1
     1  C   -0.025502
     2  C    0.037218
     3  C    0.015640
     4  C    0.201887
     5  O   -0.229243
 Electronic spatial extent (au):  <R**2>=            602.8564
 Charge=              0.0000 electrons
 Dipole moment (field-independent basis, Debye):
    X=             -0.9140    Y=              0.8513    Z=              0.8718  Tot=              1.5233
 Quadrupole moment (field-independent basis, Debye-Ang):
   XX=            -28.2781   YY=            -33.5508   ZZ=            -33.2346
   XY=             -0.4458   XZ=             -1.8846   YZ=             -0.5358
 Traceless Quadrupole moment (field-independent basis, Debye-Ang):
   XX=              3.4097   YY=             -1.8630   ZZ=             -1.5468
   XY=             -0.4458   XZ=             -1.8846   YZ=             -0.5358
 Octapole moment (field-independent basis, Debye-Ang**2):
  XXX=            -36.3946  YYY=             -2.6673  ZZZ=             -0.9426  XYY=             -2.6004
  XXY=             -4.8198  XXZ=              4.5342  XZZ=             -2.1682  YZZ=             -0.7519
  YYZ=              0.3327  XYZ=              1.6699
 Hexadecapole moment (field-independent basis, Debye-Ang**3):
 XXXX=           -516.9438 YYYY=           -119.1305 ZZZZ=            -72.6117 XXXY=             23.1488
 XXXZ=             -4.7343 YYYX=              7.0447 YYYZ=              1.2704 ZZZX=             -0.4861
 ZZZY=              0.2062 XXYY=           -113.0059 XXZZ=           -112.5490 YYZZ=            -33.6805
 XXYZ=             -3.4338 YYXZ=              1.1792 ZZXY=              1.4579
 N-N= 1.877671971586D+02 E-N=-9.190944718406D+02  KE= 2.314850441903D+02
 No NMR shielding tensors so no spin-rotation constants.
 Leave Link  601 at Fri Mar 20 17:26:42 2026, MaxMem=   536870912 cpu:         0.0
 (Enter C:\G09W\l701.exe)
 Compute integral first derivatives.
 ... and contract with generalized density number  0.
 Leave Link  701 at Fri Mar 20 17:26:42 2026, MaxMem=   536870912 cpu:         0.0
 (Enter C:\G09W\l702.exe)
 L702 exits ... SP integral derivatives will be done elsewhere.
 Leave Link  702 at Fri Mar 20 17:26:42 2026, MaxMem=   536870912 cpu:         0.0
 (Enter C:\G09W\l703.exe)
 Compute integral first derivatives, UseDBF=F ICtDFT=           0.
 Integral derivatives from FoFJK, PRISM(SPDF).
 Calling FoFJK, ICntrl=      2127 FMM=F ISym2X=0 I1Cent= 0 IOpClX= 0 NMat=1 NMatS=1 NMatT=0.
 FoFJK:  IHMeth= 1 ICntrl=    2127 DoSepK=F KAlg= 0 I1Cent=   0 FoldK=F
 IRaf=         0 NMat=   1 IRICut=       1 DoRegI=T DoRafI=F ISym2E= 0.
 FoFCou: FMM=F IPFlag=           0 FMFlag=      100000 FMFlg1=         800
         NFxFlg=           0 DoJE=F BraDBF=F KetDBF=F FulRan=T
         wScrn=  0.000000 ICntrl=    2127 IOpCl=  0 I1Cent=           0 NGrid=           0
         NMat0=    1 NMatS0=      1 NMatT0=    0 NMatD0=    1 NMtDS0=    0 NMtDT0=    0
 Symmetry not used in FoFCou.
 Leave Link  703 at Fri Mar 20 17:26:44 2026, MaxMem=   536870912 cpu:         1.0
 (Enter C:\G09W\l716.exe)
 Dipole        =-3.59606648D-01 3.34941940D-01 3.43008220D-01
 ***** Axes restored to original set *****
 -------------------------------------------------------------------
 Center     Atomic                   Forces (Hartrees/Bohr)
 Number     Number              X              Y              Z
 -------------------------------------------------------------------
      1        6           0.000431063   -0.002505816    0.002289809
      2        6          -0.011667059    0.004968170   -0.002884058
      3        6           0.004812036   -0.007858389    0.006721213
      4        6           0.001286170    0.007734277   -0.002439948
      5        8          -0.001244311    0.002353376    0.005695364
      6        1          -0.001042282    0.000857476    0.000328479
      7        1          -0.000930308   -0.000461297   -0.000410705
      8        1          -0.002426529    0.000709199   -0.000042116
      9        1           0.002915965   -0.001861091    0.000061150
     10        1           0.004661977   -0.000573505   -0.000242803
     11        1           0.003231553    0.001727577    0.003083075
     12        1           0.001582147    0.000478674   -0.002509135
     13        1           0.000726573   -0.001581737   -0.006873732
     14        1          -0.002483418   -0.004594056   -0.004501692
     15        1           0.000146423    0.000607143    0.001725100
 -------------------------------------------------------------------
 Cartesian Forces:  Max     0.011667059 RMS     0.003635224
 Leave Link  716 at Fri Mar 20 17:26:44 2026, MaxMem=   536870912 cpu:         0.0
 (Enter C:\G09W\l103.exe)

 GradGradGradGradGradGradGradGradGradGradGradGradGradGradGradGradGradGrad
 Berny optimization.
 FormGI is forming the generalized inverse of G from B-inverse, IUseBI=4.
 Internal  Forces:  Max     0.008618949 RMS     0.002773101
 Search for a local minimum.
 Step number   1 out of a maximum of   79
 All quantities printed in internal units (Hartrees-Bohrs-Radians)
 RMS Force = .27731D-02 SwitMx=.10000D-02 MixMth= 1
 Mixed Optimization -- RFO/linear search
 Second derivative matrix not updated -- first step.
 ITU=  0
     Eigenvalues ---    0.00333   0.00337   0.00404   0.01398   0.03686
     Eigenvalues ---    0.03704   0.04865   0.04901   0.05163   0.05498
     Eigenvalues ---    0.05595   0.05818   0.08022   0.08114   0.11405
     Eigenvalues ---    0.11963   0.12039   0.13765   0.16000   0.16000
     Eigenvalues ---    0.16000   0.16000   0.21915   0.21938   0.22050
     Eigenvalues ---    0.29176   0.29203   0.29666   0.33110   0.33968
     Eigenvalues ---    0.33993   0.33993   0.34184   0.34209   0.34228
     Eigenvalues ---    0.34249   0.34478   0.42133   0.53654
 RFO step:  Lambda=-3.21507746D-03 EMin= 3.33423681D-03
 Linear search not attempted -- first point.
 Iteration  1 RMS(Cart)=  0.03248087 RMS(Int)=  0.00066075
 Iteration  2 RMS(Cart)=  0.00075266 RMS(Int)=  0.00034486
 Iteration  3 RMS(Cart)=  0.00000045 RMS(Int)=  0.00034486
 ITry= 1 IFail=0 DXMaxC= 1.18D-01 DCOld= 1.00D+10 DXMaxT= 3.00D-01 DXLimC= 3.00D+00 Rises=F
 Variable       Old X    -DE/DX   Delta X   Delta X   Delta X     New X
                                 (Linear)    (Quad)   (Total)
    R1        2.89638   0.00358   0.00000   0.01213   0.01213   2.90851
    R2        2.07342  -0.00007   0.00000  -0.00020  -0.00020   2.07322
    R3        2.07342  -0.00036   0.00000  -0.00106  -0.00106   2.07235
    R4        2.06979   0.00074   0.00000   0.00214   0.00214   2.07193
    R5        2.89581   0.00255   0.00000   0.00865   0.00865   2.90446
    R6        2.07021   0.00213   0.00000   0.00618   0.00618   2.07639
    R7        2.06530   0.00145   0.00000   0.00417   0.00417   2.06948
    R8        2.88635  -0.00239   0.00000  -0.00796  -0.00796   2.87839
    R9        2.08859  -0.00450   0.00000  -0.01345  -0.01345   2.07514
   R10        2.07384   0.00001   0.00000   0.00003   0.00003   2.07387
   R11        2.68754   0.00663   0.00000   0.01561   0.01561   2.70315
   R12        2.06913   0.00505   0.00000   0.01461   0.01461   2.08373
   R13        2.06947   0.00455   0.00000   0.01316   0.01316   2.08263
   R14        1.83048  -0.00015   0.00000  -0.00028  -0.00028   1.83020
    A1        1.93746   0.00107   0.00000   0.00573   0.00567   1.94313
    A2        1.93724   0.00046   0.00000   0.00106   0.00104   1.93828
    A3        1.92435   0.00316   0.00000   0.02195   0.02185   1.94619
    A4        1.89051  -0.00137   0.00000  -0.01325  -0.01323   1.87727
    A5        1.88618  -0.00182   0.00000  -0.00777  -0.00790   1.87828
    A6        1.88645  -0.00171   0.00000  -0.00891  -0.00896   1.87749
    A7        1.93745   0.00625   0.00000   0.03526   0.03523   1.97269
    A8        1.89412  -0.00051   0.00000   0.01411   0.01432   1.90844
    A9        1.89140   0.00081   0.00000   0.02363   0.02405   1.91545
   A10        1.92551  -0.00265   0.00000  -0.01954  -0.02029   1.90522
   A11        1.93282  -0.00418   0.00000  -0.03316  -0.03395   1.89887
   A12        1.88100   0.00023   0.00000  -0.02033  -0.02126   1.85974
   A13        1.94748   0.00755   0.00000   0.03930   0.03923   1.98671
   A14        1.91245  -0.00143   0.00000   0.00219   0.00243   1.91488
   A15        1.89787  -0.00031   0.00000   0.01428   0.01448   1.91235
   A16        1.90842  -0.00299   0.00000  -0.01979  -0.02018   1.88824
   A17        1.91210  -0.00368   0.00000  -0.02276  -0.02340   1.88870
   A18        1.88443   0.00067   0.00000  -0.01480  -0.01528   1.86915
   A19        1.91685  -0.00862   0.00000  -0.03330  -0.03322   1.88363
   A20        1.91066   0.00185   0.00000   0.00705   0.00727   1.91794
   A21        1.93418  -0.00199   0.00000  -0.03129  -0.03128   1.90289
   A22        1.89475   0.00518   0.00000   0.04792   0.04783   1.94258
   A23        1.90418   0.00579   0.00000   0.03462   0.03382   1.93799
   A24        1.90272  -0.00201   0.00000  -0.02321  -0.02402   1.87870
   A25        1.86090   0.00332   0.00000   0.02036   0.02036   1.88125
    D1        1.05078  -0.00006   0.00000  -0.00339  -0.00348   1.04730
    D2       -1.06811  -0.00035   0.00000  -0.01048  -0.01069  -1.07880
    D3       -3.10622  -0.00079   0.00000  -0.00685  -0.00666  -3.11288
    D4       -1.05287   0.00065   0.00000   0.00880   0.00876  -1.04411
    D5        3.11142   0.00036   0.00000   0.00170   0.00155   3.11298
    D6        1.07332  -0.00008   0.00000   0.00533   0.00557   1.07889
    D7        3.14045   0.00043   0.00000   0.00492   0.00489  -3.13785
    D8        1.02156   0.00013   0.00000  -0.00217  -0.00232   1.01924
    D9       -1.01655  -0.00030   0.00000   0.00146   0.00170  -1.01485
   D10       -3.11734   0.00000   0.00000  -0.01981  -0.01981  -3.13715
   D11       -1.00118   0.00022   0.00000  -0.01748  -0.01745  -1.01863
   D12        1.05485   0.00003   0.00000  -0.02577  -0.02607   1.02878
   D13       -1.01696   0.00170   0.00000   0.00803   0.00772  -1.00925
   D14        1.09920   0.00191   0.00000   0.01037   0.01008   1.10928
   D15       -3.12796   0.00172   0.00000   0.00207   0.00146  -3.12650
   D16        1.06403  -0.00238   0.00000  -0.05090  -0.05031   1.01372
   D17       -3.10299  -0.00217   0.00000  -0.04856  -0.04795   3.13224
   D18       -1.04696  -0.00235   0.00000  -0.05686  -0.05657  -1.10353
   D19       -1.11684   0.00045   0.00000   0.02468   0.02450  -1.09234
   D20        3.08758  -0.00180   0.00000  -0.01809  -0.01796   3.06962
   D21        0.98829   0.00076   0.00000   0.02594   0.02612   1.01442
   D22        3.04783  -0.00064   0.00000   0.00969   0.00974   3.05757
   D23        0.96908  -0.00290   0.00000  -0.03308  -0.03273   0.93635
   D24       -1.13022  -0.00034   0.00000   0.01096   0.01136  -1.11886
   D25        0.98583   0.00247   0.00000   0.05272   0.05219   1.03802
   D26       -1.09293   0.00022   0.00000   0.00995   0.00973  -1.08320
   D27        3.09096   0.00277   0.00000   0.05399   0.05382  -3.13840
   D28       -3.13279  -0.00162   0.00000  -0.02598  -0.02612   3.12427
   D29       -1.04429  -0.00133   0.00000  -0.00806  -0.00876  -1.05305
   D30        1.02721   0.00257   0.00000   0.01156   0.01240   1.03961
         Item               Value     Threshold  Converged?
 Maximum Force            0.008619     0.000450     NO 
 RMS     Force            0.002773     0.000300     NO 
 Maximum Displacement     0.117956     0.001800     NO 
 RMS     Displacement     0.032357     0.001200     NO 
 Predicted change in Energy=-1.648261D-03
 Lowest energy point so far.  Saving SCF results.
 GradGradGradGradGradGradGradGradGradGradGradGradGradGradGradGradGradGrad

 Leave Link  103 at Fri Mar 20 17:26:45 2026, MaxMem=   536870912 cpu:         0.0
 (Enter C:\G09W\l202.exe)
                          Input orientation:                          
 ---------------------------------------------------------------------
 Center     Atomic      Atomic             Coordinates (Angstroms)
 Number     Number       Type             X           Y           Z
 ---------------------------------------------------------------------
      1          6           0       -2.099164   -0.282518    0.563988
      2          6           0       -0.598970   -0.624373    0.526043
      3          6           0        0.148048    0.074414   -0.621105
      4          6           0        1.633789   -0.256101   -0.679465
      5          8           0        2.237135    0.213843    0.529380
      6          1           0       -2.600231   -0.581367   -0.365128
      7          1           0       -2.254486    0.795533    0.691675
      8          1           0       -2.606376   -0.790479    1.392746
      9          1           0       -0.475828   -1.711736    0.427067
     10          1           0       -0.131118   -0.342468    1.475217
     11          1           0       -0.303435   -0.205783   -1.582103
     12          1           0        0.042300    1.162058   -0.519927
     13          1           0        2.089024    0.217817   -1.564920
     14          1           0        1.755480   -1.346392   -0.784523
     15          1           0        3.178542   -0.011331    0.497161
 ---------------------------------------------------------------------
                    Distance matrix (angstroms):
                    1          2          3          4          5
     1  C    0.000000
     2  C    1.539119   0.000000
     3  C    2.565504   1.536974   0.000000
     4  C    3.934693   2.563998   1.523178   0.000000
     5  O    4.364752   2.957382   2.389003   1.430447   0.000000
     6  H    1.097103   2.191137   2.837008   4.258114   4.983233
     7  H    1.096642   2.187305   2.831179   4.254956   4.532038
     8  H    1.096416   2.192816   3.520012   4.749591   5.021321
     9  H    2.167171   1.098780   2.162919   2.791733   3.328437
    10  H    2.169594   1.095120   2.155525   2.786577   2.610117
    11  H    2.799328   2.169525   1.098119   2.137785   3.330006
    12  H    2.801346   2.167168   1.097447   2.137630   2.611026
    13  H    4.724775   3.508094   2.163039   1.102664   2.099534
    14  H    4.220022   2.789683   2.151565   1.102080   2.095869
    15  H    5.285091   3.827042   3.231372   1.957198   0.968498
                    6          7          8          9         10
     6  H    0.000000
     7  H    1.769810   0.000000
     8  H    1.770279   1.769397   0.000000
     9  H    2.533455   3.085457   2.514057   0.000000
    10  H    3.088764   2.533314   2.516827   1.758505   0.000000
    11  H    2.626283   3.159003   3.807247   2.516819   3.065221
    12  H    3.169616   2.622508   3.806075   3.069845   2.504850
    13  H    4.905844   4.928697   5.640144   3.777520   3.805966
    14  H    4.442226   4.779836   4.906661   2.565183   3.110232
    15  H    5.870494   5.496059   5.905457   4.031217   3.467000
                   11         12         13         14         15
    11  H    0.000000
    12  H    1.765995   0.000000
    13  H    2.429731   2.484487   0.000000
    14  H    2.485207   3.049150   1.779613   0.000000
    15  H    4.060211   3.499618   2.343446   2.334568   0.000000
 Stoichiometry    C4H10O
 Framework group  C1[X(C4H10O)]
 Deg. of freedom    39
 Full point group                 C1      NOp   1
 RotChk:  IX=0 Diff= 4.03D-02
 Largest Abelian subgroup         C1      NOp   1
 Largest concise Abelian subgroup C1      NOp   1
                         Standard orientation:                         
 ---------------------------------------------------------------------
 Center     Atomic      Atomic             Coordinates (Angstroms)
 Number     Number       Type             X           Y           Z
 ---------------------------------------------------------------------
      1          6           0        2.410479   -0.142686   -0.125144
      2          6           0        0.958355   -0.345410    0.342965
      3          6           0       -0.009282    0.703500   -0.227782
      4          6           0       -1.451196    0.523583    0.228931
      5          8           0       -1.911002   -0.742235   -0.253211
      6          1           0        2.794986    0.838395    0.180258
      7          1           0        2.484056   -0.201390   -1.217739
      8          1           0        3.077848   -0.905497    0.293025
      9          1           0        0.921534   -0.310591    1.440576
     10          1           0        0.611048   -1.341985    0.050553
     11          1           0        0.320012    1.709355    0.064941
     12          1           0        0.010704    0.663894   -1.324332
     13          1           0       -2.072583    1.348845   -0.156670
     14          1           0       -1.487213    0.564510    1.329662
     15          1           0       -2.822508   -0.861580    0.051591
 ---------------------------------------------------------------------
 Rotational constants (GHZ):     12.4583573      2.3508679      2.1661670
 Leave Link  202 at Fri Mar 20 17:26:45 2026, MaxMem=   536870912 cpu:         0.0
 (Enter C:\G09W\l301.exe)
 Standard basis: 6-31G(d) (6D, 7F)
 Ernie: Thresh=  0.10000D-02 Tol=  0.10000D-05 Strict=F.
 There are    95 symmetry adapted cartesian basis functions of A   symmetry.
 There are    95 symmetry adapted basis functions of A   symmetry.
    95 basis functions,   180 primitive gaussians,    95 cartesian basis functions
    21 alpha electrons       21 beta electrons
       nuclear repulsion energy       187.1964542588 Hartrees.
 IExCor=  402 DFT=T Ex+Corr=B3LYP ExCW=0 ScaHFX=  0.200000
 ScaDFX=  0.800000  0.720000  1.000000  0.810000 ScalE2=  1.000000  1.000000
 IRadAn=      0 IRanWt=     -1 IRanGd=            0 ICorTp=0 IEmpDi=  4
 NAtoms=   15 NActive=   15 NUniq=   15 SFac= 1.00D+00 NAtFMM=   60 NAOKFM=F Big=F
 Integral buffers will be    131072 words long.
 Raffenetti 2 integral format.
 Two-electron integral symmetry is turned on.
 Leave Link  301 at Fri Mar 20 17:26:45 2026, MaxMem=   536870912 cpu:         0.0
 (Enter C:\G09W\l302.exe)
 NPDir=0 NMtPBC=     1 NCelOv=     1 NCel=       1 NClECP=     1 NCelD=      1
         NCelK=      1 NCelE2=     1 NClLst=     1 CellRange=     0.0.
 One-electron integrals computed using PRISM.
 NBasis=    95 RedAO= T EigKep=  4.27D-03  NBF=    95
 NBsUse=    95 1.00D-06 EigRej= -1.00D+00 NBFU=    95
 Precomputing XC quadrature grid using
 IXCGrd= 4 IRadAn=           0 IRanWt=          -1 IRanGd=           0 AccXCQ= 0.00D+00.
 Generated NRdTot=       0 NPtTot=           0 NUsed=           0 NTot=          32
 NSgBfM=    95    95    95    95    95 MxSgAt=    15 MxSgA2=    15.
 Leave Link  302 at Fri Mar 20 17:26:46 2026, MaxMem=   536870912 cpu:         1.0
 (Enter C:\G09W\l303.exe)
 DipDrv:  MaxL=1.
 Leave Link  303 at Fri Mar 20 17:26:46 2026, MaxMem=   536870912 cpu:         0.0
 (Enter C:\G09W\l401.exe)
 Initial guess from the checkpoint file:  "1-butanol_ml.chk"
 B after Tr=     0.000000    0.000000    0.000000
         Rot=    0.999907    0.013168    0.000066   -0.003629 Ang=   1.57 deg.
 Guess basis will be translated and rotated to current coordinates.
 JPrj=2 DoOrth=T DoCkMO=T.
 Generating alternative initial guess.
 ExpMin= 1.61D-01 ExpMax= 5.48D+03 ExpMxC= 8.25D+02 IAcc=1 IRadAn=         1 AccDes= 0.00D+00
 Harris functional with IExCor=  402 and IRadAn=       1 diagonalized for initial guess.
 HarFok:  IExCor=  402 AccDes= 0.00D+00 IRadAn=         1 IDoV= 1 UseB2=F ITyADJ=14
 ICtDFT=  3500011 ScaDFX=  1.000000  1.000000  1.000000  1.000000
 FoFCou: FMM=F IPFlag=           0 FMFlag=      100000 FMFlg1=           0
         NFxFlg=           0 DoJE=T BraDBF=F KetDBF=T FulRan=T
         wScrn=  0.000000 ICntrl=     500 IOpCl=  0 I1Cent=   200000004 NGrid=           0
         NMat0=    1 NMatS0=      1 NMatT0=    0 NMatD0=    1 NMtDS0=    0 NMtDT0=    0
 Petite list used in FoFCou.
 Harris En= -233.721651912170    
 Leave Link  401 at Fri Mar 20 17:26:47 2026, MaxMem=   536870912 cpu:         1.0
 (Enter C:\G09W\l502.exe)
 Closed shell SCF:
 Using DIIS extrapolation, IDIIS=  1040.
 Integral symmetry usage will be decided dynamically.
 Keep R1 ints in memory in canonical form, NReq=11361312.
 IVT=       46930 IEndB=       46930 NGot=   536870912 MDV=   526424903
 LenX=   526424903 LenY=   526415437
 Requested convergence on RMS density matrix=1.00D-08 within 128 cycles.
 Requested convergence on MAX density matrix=1.00D-06.
 Requested convergence on             energy=1.00D-06.
 No special actions if energy rises.
 FoFCou: FMM=F IPFlag=           0 FMFlag=           0 FMFlg1=           0
         NFxFlg=           0 DoJE=F BraDBF=F KetDBF=F FulRan=T
         wScrn=  0.000000 ICntrl=     600 IOpCl=  0 I1Cent=           0 NGrid=           0
         NMat0=    1 NMatS0=   4560 NMatT0=    0 NMatD0=    1 NMtDS0=    0 NMtDT0=    0
 Symmetry not used in FoFCou.
 Integral accuracy reduced to 1.0D-05 until final iterations.

 Cycle   1  Pass 0  IDiag  1:
 E= -233.660347225693    
 DIIS: error= 1.96D-03 at cycle   1 NSaved=   1.
 NSaved= 1 IEnMin= 1 EnMin= -233.660347225693     IErMin= 1 ErrMin= 1.96D-03
 ErrMax= 1.96D-03  0.00D+00 EMaxC= 1.00D-01 BMatC= 6.69D-04 BMatP= 6.69D-04
 IDIUse=3 WtCom= 9.80D-01 WtEn= 1.96D-02
 Coeff-Com:  0.100D+01
 Coeff-En:   0.100D+01
 Coeff:      0.100D+01
 Gap=     1.809 Goal=   None    Shift=    0.000
 GapD=    1.809 DampG=2.000 DampE=1.000 DampFc=2.0000 IDamp=-1.
 RMSDP=4.37D-04 MaxDP=7.08D-03              OVMax= 8.55D-03

 Cycle   2  Pass 0  IDiag  1:
 E= -233.661372489835     Delta-E=       -0.001025264142 Rises=F Damp=F
 DIIS: error= 4.04D-04 at cycle   2 NSaved=   2.
 NSaved= 2 IEnMin= 2 EnMin= -233.661372489835     IErMin= 2 ErrMin= 4.04D-04
 ErrMax= 4.04D-04  0.00D+00 EMaxC= 1.00D-01 BMatC= 3.03D-05 BMatP= 6.69D-04
 IDIUse=3 WtCom= 9.96D-01 WtEn= 4.04D-03
 Coeff-Com:  0.446D-01 0.955D+00
 Coeff-En:   0.000D+00 0.100D+01
 Coeff:      0.444D-01 0.956D+00
 Gap=     0.337 Goal=   None    Shift=    0.000
 RMSDP=1.02D-04 MaxDP=1.74D-03 DE=-1.03D-03 OVMax= 1.98D-03

 Cycle   3  Pass 0  IDiag  1:
 E= -233.661380621800     Delta-E=       -0.000008131965 Rises=F Damp=F
 DIIS: error= 3.55D-04 at cycle   3 NSaved=   3.
 NSaved= 3 IEnMin= 3 EnMin= -233.661380621800     IErMin= 3 ErrMin= 3.55D-04
 ErrMax= 3.55D-04  0.00D+00 EMaxC= 1.00D-01 BMatC= 2.88D-05 BMatP= 3.03D-05
 IDIUse=3 WtCom= 9.96D-01 WtEn= 3.55D-03
 Coeff-Com: -0.243D-01 0.497D+00 0.528D+00
 Coeff-En:   0.000D+00 0.417D+00 0.583D+00
 Coeff:     -0.242D-01 0.496D+00 0.528D+00
 Gap=     0.337 Goal=   None    Shift=    0.000
 RMSDP=4.78D-05 MaxDP=9.54D-04 DE=-8.13D-06 OVMax= 9.03D-04

 Cycle   4  Pass 0  IDiag  1:
 E= -233.661404841062     Delta-E=       -0.000024219262 Rises=F Damp=F
 DIIS: error= 1.15D-04 at cycle   4 NSaved=   4.
 NSaved= 4 IEnMin= 4 EnMin= -233.661404841062     IErMin= 4 ErrMin= 1.15D-04
 ErrMax= 1.15D-04  0.00D+00 EMaxC= 1.00D-01 BMatC= 1.03D-06 BMatP= 2.88D-05
 IDIUse=3 WtCom= 9.99D-01 WtEn= 1.15D-03
 Coeff-Com: -0.138D-01 0.157D+00 0.230D+00 0.628D+00
 Coeff-En:   0.000D+00 0.000D+00 0.000D+00 0.100D+01
 Coeff:     -0.138D-01 0.156D+00 0.229D+00 0.628D+00
 Gap=     0.337 Goal=   None    Shift=    0.000
 RMSDP=1.11D-05 MaxDP=2.55D-04 DE=-2.42D-05 OVMax= 2.11D-04

 Cycle   5  Pass 0  IDiag  1:
 E= -233.661405555444     Delta-E=       -0.000000714383 Rises=F Damp=F
 DIIS: error= 3.92D-05 at cycle   5 NSaved=   5.
 NSaved= 5 IEnMin= 5 EnMin= -233.661405555444     IErMin= 5 ErrMin= 3.92D-05
 ErrMax= 3.92D-05  0.00D+00 EMaxC= 1.00D-01 BMatC= 1.19D-07 BMatP= 1.03D-06
 IDIUse=1 WtCom= 1.00D+00 WtEn= 0.00D+00
 Coeff-Com: -0.589D-02 0.556D-01 0.912D-01 0.335D+00 0.524D+00
 Coeff:     -0.589D-02 0.556D-01 0.912D-01 0.335D+00 0.524D+00
 Gap=     0.337 Goal=   None    Shift=    0.000
 RMSDP=3.49D-06 MaxDP=7.40D-05 DE=-7.14D-07 OVMax= 7.18D-05

 Initial convergence to 1.0D-05 achieved.  Increase integral accuracy.
 Cycle   6  Pass 1  IDiag  1:
 E= -233.661370156344     Delta-E=        0.000035399101 Rises=F Damp=F
 DIIS: error= 8.95D-06 at cycle   1 NSaved=   1.
 NSaved= 1 IEnMin= 1 EnMin= -233.661370156344     IErMin= 1 ErrMin= 8.95D-06
 ErrMax= 8.95D-06  0.00D+00 EMaxC= 1.00D-01 BMatC= 1.63D-08 BMatP= 1.63D-08
 IDIUse=1 WtCom= 1.00D+00 WtEn= 0.00D+00
 Coeff-Com:  0.100D+01
 Coeff:      0.100D+01
 Gap=     0.337 Goal=   None    Shift=    0.000
 RMSDP=3.49D-06 MaxDP=7.40D-05 DE= 3.54D-05 OVMax= 3.53D-05

 Cycle   7  Pass 1  IDiag  1:
 E= -233.661370171422     Delta-E=       -0.000000015079 Rises=F Damp=F
 DIIS: error= 7.96D-06 at cycle   2 NSaved=   2.
 NSaved= 2 IEnMin= 2 EnMin= -233.661370171422     IErMin= 2 ErrMin= 7.96D-06
 ErrMax= 7.96D-06  0.00D+00 EMaxC= 1.00D-01 BMatC= 5.66D-09 BMatP= 1.63D-08
 IDIUse=1 WtCom= 1.00D+00 WtEn= 0.00D+00
 Coeff-Com:  0.318D+00 0.682D+00
 Coeff:      0.318D+00 0.682D+00
 Gap=     0.337 Goal=   None    Shift=    0.000
 RMSDP=1.08D-06 MaxDP=2.30D-05 DE=-1.51D-08 OVMax= 2.10D-05

 Cycle   8  Pass 1  IDiag  1:
 E= -233.661370174020     Delta-E=       -0.000000002598 Rises=F Damp=F
 DIIS: error= 5.81D-06 at cycle   3 NSaved=   3.
 NSaved= 3 IEnMin= 3 EnMin= -233.661370174020     IErMin= 3 ErrMin= 5.81D-06
 ErrMax= 5.81D-06  0.00D+00 EMaxC= 1.00D-01 BMatC= 2.51D-09 BMatP= 5.66D-09
 IDIUse=1 WtCom= 1.00D+00 WtEn= 0.00D+00
 Coeff-Com: -0.112D-01 0.398D+00 0.613D+00
 Coeff:     -0.112D-01 0.398D+00 0.613D+00
 Gap=     0.337 Goal=   None    Shift=    0.000
 RMSDP=4.54D-07 MaxDP=1.05D-05 DE=-2.60D-09 OVMax= 9.83D-06

 Cycle   9  Pass 1  IDiag  1:
 E= -233.661370175859     Delta-E=       -0.000000001839 Rises=F Damp=F
 DIIS: error= 4.79D-07 at cycle   4 NSaved=   4.
 NSaved= 4 IEnMin= 4 EnMin= -233.661370175859     IErMin= 4 ErrMin= 4.79D-07
 ErrMax= 4.79D-07  0.00D+00 EMaxC= 1.00D-01 BMatC= 6.23D-11 BMatP= 2.51D-09
 IDIUse=1 WtCom= 1.00D+00 WtEn= 0.00D+00
 Coeff-Com: -0.122D-01 0.187D+00 0.312D+00 0.513D+00
 Coeff:     -0.122D-01 0.187D+00 0.312D+00 0.513D+00
 Gap=     0.337 Goal=   None    Shift=    0.000
 RMSDP=7.78D-08 MaxDP=1.42D-06 DE=-1.84D-09 OVMax= 1.50D-06

 Cycle  10  Pass 1  IDiag  1:
 E= -233.661370175911     Delta-E=       -0.000000000052 Rises=F Damp=F
 DIIS: error= 8.53D-08 at cycle   5 NSaved=   5.
 NSaved= 5 IEnMin= 5 EnMin= -233.661370175911     IErMin= 5 ErrMin= 8.53D-08
 ErrMax= 8.53D-08  0.00D+00 EMaxC= 1.00D-01 BMatC= 1.73D-12 BMatP= 6.23D-11
 IDIUse=1 WtCom= 1.00D+00 WtEn= 0.00D+00
 Coeff-Com: -0.358D-02 0.386D-01 0.678D-01 0.190D+00 0.707D+00
 Coeff:     -0.358D-02 0.386D-01 0.678D-01 0.190D+00 0.707D+00
 Gap=     0.337 Goal=   None    Shift=    0.000
 RMSDP=1.39D-08 MaxDP=2.29D-07 DE=-5.22D-11 OVMax= 2.55D-07

 Cycle  11  Pass 1  IDiag  1:
 E= -233.661370175917     Delta-E=       -0.000000000006 Rises=F Damp=F
 DIIS: error= 1.68D-08 at cycle   6 NSaved=   6.
 NSaved= 6 IEnMin= 6 EnMin= -233.661370175917     IErMin= 6 ErrMin= 1.68D-08
 ErrMax= 1.68D-08  0.00D+00 EMaxC= 1.00D-01 BMatC= 5.55D-14 BMatP= 1.73D-12
 IDIUse=1 WtCom= 1.00D+00 WtEn= 0.00D+00
 Coeff-Com: -0.324D-03 0.623D-03 0.164D-02 0.278D-01 0.202D+00 0.768D+00
 Coeff:     -0.324D-03 0.623D-03 0.164D-02 0.278D-01 0.202D+00 0.768D+00
 Gap=     0.337 Goal=   None    Shift=    0.000
 RMSDP=3.60D-09 MaxDP=5.28D-08 DE=-6.08D-12 OVMax= 6.95D-08

 SCF Done:  E(RB3LYP) =  -233.661370176     A.U. after   11 cycles
            NFock= 11  Conv=0.36D-08     -V/T= 2.0097
 KE= 2.314229931721D+02 PE=-9.179054476905D+02 EE= 2.656246300836D+02
 Leave Link  502 at Fri Mar 20 17:26:53 2026, MaxMem=   536870912 cpu:         6.0
 (Enter C:\G09W\l701.exe)
 Compute integral first derivatives.
 ... and contract with generalized density number  0.
 Leave Link  701 at Fri Mar 20 17:26:54 2026, MaxMem=   536870912 cpu:         0.0
 (Enter C:\G09W\l702.exe)
 L702 exits ... SP integral derivatives will be done elsewhere.
 Leave Link  702 at Fri Mar 20 17:26:54 2026, MaxMem=   536870912 cpu:         0.0
 (Enter C:\G09W\l703.exe)
 Compute integral first derivatives, UseDBF=F ICtDFT=           0.
 Integral derivatives from FoFJK, PRISM(SPDF).
 Calling FoFJK, ICntrl=      2127 FMM=F ISym2X=0 I1Cent= 0 IOpClX= 0 NMat=1 NMatS=1 NMatT=0.
 FoFJK:  IHMeth= 1 ICntrl=    2127 DoSepK=F KAlg= 0 I1Cent=   0 FoldK=F
 IRaf=         0 NMat=   1 IRICut=       1 DoRegI=T DoRafI=F ISym2E= 0.
 FoFCou: FMM=F IPFlag=           0 FMFlag=      100000 FMFlg1=         800
         NFxFlg=           0 DoJE=F BraDBF=F KetDBF=F FulRan=T
         wScrn=  0.000000 ICntrl=    2127 IOpCl=  0 I1Cent=           0 NGrid=           0
         NMat0=    1 NMatS0=      1 NMatT0=    0 NMatD0=    1 NMtDS0=    0 NMtDT0=    0
 Symmetry not used in FoFCou.
 Leave Link  703 at Fri Mar 20 17:26:56 2026, MaxMem=   536870912 cpu:         2.0
 (Enter C:\G09W\l716.exe)
 Dipole        =-3.85968670D-01 3.21638129D-01 3.23965569D-01
 ***** Axes restored to original set *****
 -------------------------------------------------------------------
 Center     Atomic                   Forces (Hartrees/Bohr)
 Number     Number              X              Y              Z
 -------------------------------------------------------------------
      1        6           0.003289023   -0.000518493   -0.000355766
      2        6          -0.002779119    0.001605678   -0.000605642
      3        6          -0.001283940   -0.000311231    0.001349021
      4        6          -0.001298208    0.000239010    0.003335555
      5        8          -0.000349449   -0.000694655   -0.003324246
      6        1           0.000014194    0.000032633   -0.000196423
      7        1          -0.000048418    0.000245142   -0.000072669
      8        1           0.000596195   -0.000082336   -0.000116793
      9        1           0.000241863   -0.000528873    0.000019198
     10        1           0.000347422   -0.000264133    0.000288770
     11        1          -0.000377710    0.000296523   -0.000889009
     12        1          -0.000598418    0.000675953   -0.000445702
     13        1           0.000194228    0.000135366    0.000855873
     14        1           0.001611243   -0.000627066   -0.000081458
     15        1           0.000441094   -0.000203517    0.000239291
 -------------------------------------------------------------------
 Cartesian Forces:  Max     0.003335555 RMS     0.001127226
 Leave Link  716 at Fri Mar 20 17:26:56 2026, MaxMem=   536870912 cpu:         0.0
 (Enter C:\G09W\l103.exe)

 GradGradGradGradGradGradGradGradGradGradGradGradGradGradGradGradGradGrad
 Berny optimization.
 Using GEDIIS/GDIIS optimizer.
 FormGI is forming the generalized inverse of G from B-inverse, IUseBI=4.
 Internal  Forces:  Max     0.003842762 RMS     0.000803208
 Search for a local minimum.
 Step number   2 out of a maximum of   79
 All quantities printed in internal units (Hartrees-Bohrs-Radians)
 RMS Force = .80321D-03 SwitMx=.10000D-02 MixMth= 2
 Mixed Optimization -- En-DIIS/RFO-DIIS
 Update second derivatives using D2CorX and points    1    2
 DE= -1.38D-03 DEPred=-1.65D-03 R= 8.36D-01
 TightC=F SS=  1.41D+00  RLast= 1.87D-01 DXNew= 5.0454D-01 5.6077D-01
 Trust test= 8.36D-01 RLast= 1.87D-01 DXMaxT set to 5.05D-01
 ITU=  1  0
 Use linear search instead of GDIIS.
     Eigenvalues ---    0.00333   0.00338   0.00406   0.01396   0.03452
     Eigenvalues ---    0.03475   0.04700   0.04817   0.05414   0.05442
     Eigenvalues ---    0.05489   0.05985   0.08067   0.08492   0.11487
     Eigenvalues ---    0.12241   0.12339   0.13764   0.15881   0.16000
     Eigenvalues ---    0.16000   0.16126   0.21920   0.21955   0.22840
     Eigenvalues ---    0.29191   0.29602   0.30932   0.33350   0.33802
     Eigenvalues ---    0.33990   0.33993   0.34043   0.34196   0.34213
     Eigenvalues ---    0.34461   0.34601   0.43664   0.53671
 RFO step:  Lambda=-1.17777888D-04 EMin= 3.33419433D-03
 Quartic linear search produced a step of -0.12233.
 Iteration  1 RMS(Cart)=  0.01060315 RMS(Int)=  0.00006350
 Iteration  2 RMS(Cart)=  0.00006411 RMS(Int)=  0.00003831
 Iteration  3 RMS(Cart)=  0.00000000 RMS(Int)=  0.00003831
 ITry= 1 IFail=0 DXMaxC= 3.03D-02 DCOld= 1.00D+10 DXMaxT= 5.05D-01 DXLimC= 3.00D+00 Rises=F
 Variable       Old X    -DE/DX   Delta X   Delta X   Delta X     New X
                                 (Linear)    (Quad)   (Total)
    R1        2.90851  -0.00384  -0.00148  -0.00963  -0.01111   2.89740
    R2        2.07322   0.00015   0.00002   0.00035   0.00038   2.07360
    R3        2.07235   0.00024   0.00013   0.00046   0.00059   2.07294
    R4        2.07193  -0.00033  -0.00026  -0.00050  -0.00076   2.07117
    R5        2.90446  -0.00181  -0.00106  -0.00405  -0.00511   2.89935
    R6        2.07639   0.00055  -0.00076   0.00238   0.00162   2.07802
    R7        2.06948   0.00033  -0.00051   0.00150   0.00099   2.07047
    R8        2.87839   0.00080   0.00097   0.00110   0.00207   2.88046
    R9        2.07514   0.00086   0.00164   0.00015   0.00179   2.07694
   R10        2.07387   0.00069   0.00000   0.00178   0.00177   2.07565
   R11        2.70315  -0.00287  -0.00191  -0.00351  -0.00542   2.69773
   R12        2.08373  -0.00055  -0.00179   0.00090  -0.00089   2.08284
   R13        2.08263   0.00081  -0.00161   0.00414   0.00253   2.08516
   R14        1.83020   0.00047   0.00003   0.00072   0.00076   1.83096
    A1        1.94313   0.00002  -0.00069   0.00101   0.00033   1.94345
    A2        1.93828   0.00016  -0.00013   0.00119   0.00106   1.93934
    A3        1.94619  -0.00073  -0.00267  -0.00074  -0.00340   1.94279
    A4        1.87727  -0.00005   0.00162  -0.00203  -0.00041   1.87686
    A5        1.87828   0.00034   0.00097   0.00031   0.00129   1.87957
    A6        1.87749   0.00030   0.00110   0.00016   0.00127   1.87876
    A7        1.97269  -0.00103  -0.00431   0.00147  -0.00284   1.96985
    A8        1.90844   0.00043  -0.00175   0.00398   0.00220   1.91064
    A9        1.91545   0.00041  -0.00294   0.00622   0.00323   1.91867
   A10        1.90522   0.00020   0.00248  -0.00333  -0.00075   1.90447
   A11        1.89887   0.00033   0.00415  -0.00373   0.00052   1.89940
   A12        1.85974  -0.00030   0.00260  -0.00509  -0.00238   1.85736
   A13        1.98671  -0.00113  -0.00480   0.00248  -0.00231   1.98440
   A14        1.91488   0.00045  -0.00030   0.00212   0.00179   1.91667
   A15        1.91235   0.00029  -0.00177   0.00371   0.00192   1.91426
   A16        1.88824   0.00033   0.00247  -0.00193   0.00059   1.88883
   A17        1.88870   0.00058   0.00286   0.00020   0.00314   1.89184
   A18        1.86915  -0.00050   0.00187  -0.00732  -0.00539   1.86376
   A19        1.88363   0.00162   0.00406   0.00154   0.00557   1.88920
   A20        1.91794  -0.00039  -0.00089  -0.00134  -0.00224   1.91569
   A21        1.90289   0.00126   0.00383   0.00787   0.01168   1.91457
   A22        1.94258  -0.00111  -0.00585  -0.00313  -0.00898   1.93360
   A23        1.93799  -0.00111  -0.00414   0.00200  -0.00212   1.93587
   A24        1.87870  -0.00025   0.00294  -0.00668  -0.00366   1.87504
   A25        1.88125   0.00033  -0.00249   0.00505   0.00256   1.88382
    D1        1.04730  -0.00002   0.00043  -0.00263  -0.00219   1.04511
    D2       -1.07880   0.00011   0.00131  -0.00223  -0.00089  -1.07969
    D3       -3.11288  -0.00001   0.00082  -0.00193  -0.00114  -3.11402
    D4       -1.04411  -0.00007  -0.00107  -0.00154  -0.00260  -1.04671
    D5        3.11298   0.00005  -0.00019  -0.00113  -0.00130   3.11167
    D6        1.07889  -0.00006  -0.00068  -0.00084  -0.00155   1.07734
    D7       -3.13785  -0.00007  -0.00060  -0.00205  -0.00264  -3.14049
    D8        1.01924   0.00006   0.00028  -0.00165  -0.00134   1.01789
    D9       -1.01485  -0.00006  -0.00021  -0.00135  -0.00159  -1.01644
   D10       -3.13715   0.00004   0.00242  -0.01638  -0.01396   3.13207
   D11       -1.01863   0.00002   0.00214  -0.01560  -0.01347  -1.03210
   D12        1.02878  -0.00015   0.00319  -0.02106  -0.01783   1.01095
   D13       -1.00925   0.00003  -0.00094  -0.01269  -0.01359  -1.02284
   D14        1.10928   0.00002  -0.00123  -0.01191  -0.01310   1.09617
   D15       -3.12650  -0.00015  -0.00018  -0.01736  -0.01746   3.13922
   D16        1.01372  -0.00003   0.00615  -0.02264  -0.01655   0.99717
   D17        3.13224  -0.00005   0.00587  -0.02186  -0.01606   3.11618
   D18       -1.10353  -0.00021   0.00692  -0.02731  -0.02043  -1.12396
   D19       -1.09234  -0.00033  -0.00300  -0.00724  -0.01024  -1.10258
   D20        3.06962   0.00025   0.00220  -0.00357  -0.00138   3.06824
   D21        1.01442   0.00003  -0.00320   0.00066  -0.00254   1.01188
   D22        3.05757  -0.00039  -0.00119  -0.01020  -0.01142   3.04614
   D23        0.93635   0.00018   0.00400  -0.00653  -0.00257   0.93378
   D24       -1.11886  -0.00004  -0.00139  -0.00231  -0.00373  -1.12258
   D25        1.03802  -0.00029  -0.00638  -0.00070  -0.00704   1.03098
   D26       -1.08320   0.00029  -0.00119   0.00298   0.00182  -1.08139
   D27       -3.13840   0.00007  -0.00658   0.00720   0.00066  -3.13775
   D28        3.12427   0.00055   0.00320  -0.00382  -0.00061   3.12366
   D29       -1.05305   0.00045   0.00107  -0.00638  -0.00525  -1.05830
   D30        1.03961  -0.00135  -0.00152  -0.01558  -0.01717   1.02244
         Item               Value     Threshold  Converged?
 Maximum Force            0.003843     0.000450     NO 
 RMS     Force            0.000803     0.000300     NO 
 Maximum Displacement     0.030318     0.001800     NO 
 RMS     Displacement     0.010598     0.001200     NO 
 Predicted change in Energy=-8.710266D-05
 Lowest energy point so far.  Saving SCF results.
 GradGradGradGradGradGradGradGradGradGradGradGradGradGradGradGradGradGrad

 Leave Link  103 at Fri Mar 20 17:26:56 2026, MaxMem=   536870912 cpu:         0.0
 (Enter C:\G09W\l202.exe)
                          Input orientation:                          
 ---------------------------------------------------------------------
 Center     Atomic      Atomic             Coordinates (Angstroms)
 Number     Number       Type             X           Y           Z
 ---------------------------------------------------------------------
      1          6           0       -2.094322   -0.277428    0.564799
      2          6           0       -0.602739   -0.629875    0.522611
      3          6           0        0.142868    0.069212   -0.621646
      4          6           0        1.630773   -0.257720   -0.673294
      5          8           0        2.236201    0.224522    0.526240
      6          1           0       -2.599388   -0.565514   -0.365785
      7          1           0       -2.241873    0.801020    0.700754
      8          1           0       -2.601303   -0.788870    1.391023
      9          1           0       -0.486100   -1.718163    0.416626
     10          1           0       -0.127828   -0.358511    1.471956
     11          1           0       -0.304608   -0.212740   -1.585088
     12          1           0        0.030267    1.157617   -0.526011
     13          1           0        2.085764    0.215442   -1.558692
     14          1           0        1.768748   -1.347884   -0.773492
     15          1           0        3.178248    0.000010    0.496105
 ---------------------------------------------------------------------
                    Distance matrix (angstroms):
                    1          2          3          4          5
     1  C    0.000000
     2  C    1.533238   0.000000
     3  C    2.555941   1.534268   0.000000
     4  C    3.925506   2.560715   1.524275   0.000000
     5  O    4.359687   2.964724   2.392448   1.427578   0.000000
     6  H    1.097302   2.186321   2.826360   4.252477   4.980240
     7  H    1.096953   2.183108   2.823345   4.243386   4.518402
     8  H    1.096014   2.184874   3.509646   4.738564   5.017594
     9  H    2.164267   1.099640   2.160629   2.793201   3.346186
    10  H    2.167166   1.095643   2.153925   2.775776   2.612076
    11  H    2.798085   2.169166   1.099069   2.139881   3.332358
    12  H    2.786234   2.166895   1.098385   2.141609   2.616112
    13  H    4.714367   3.503489   2.162009   1.102193   2.090372
    14  H    4.226134   2.796314   2.162106   1.103420   2.092911
    15  H    5.280312   3.833187   3.235381   1.956681   0.968900
                    6          7          8          9         10
     6  H    0.000000
     7  H    1.769954   0.000000
     8  H    1.770950   1.770144   0.000000
     9  H    2.531157   3.083788   2.507412   0.000000
    10  H    3.086867   2.531492   2.511938   1.758048   0.000000
    11  H    2.622436   3.163192   3.803153   2.511194   3.065619
    12  H    3.148005   2.606671   3.793282   3.070066   2.513068
    13  H    4.897303   4.916955   5.628326   3.775605   3.796609
    14  H    4.456337   4.782915   4.908662   2.576398   3.101273
    15  H    5.868881   5.482811   5.901391   4.047948   3.465684
                   11         12         13         14         15
    11  H    0.000000
    12  H    1.763991   0.000000
    13  H    2.428562   2.485798   0.000000
    14  H    2.499209   3.059591   1.777928   0.000000
    15  H    4.062870   3.506360   2.337119   2.327099   0.000000
 Stoichiometry    C4H10O
 Framework group  C1[X(C4H10O)]
 Deg. of freedom    39
 Full point group                 C1      NOp   1
 RotChk:  IX=0 Diff= 9.46D-03
 Largest Abelian subgroup         C1      NOp   1
 Largest concise Abelian subgroup C1      NOp   1
                         Standard orientation:                         
 ---------------------------------------------------------------------
 Center     Atomic      Atomic             Coordinates (Angstroms)
 Number     Number       Type             X           Y           Z
 ---------------------------------------------------------------------
      1          6           0        2.404268   -0.146804   -0.130127
      2          6           0        0.961283   -0.340357    0.350656
      3          6           0       -0.004409    0.702776   -0.226656
      4          6           0       -1.447497    0.519997    0.228869
      5          8           0       -1.913125   -0.739355   -0.256110
      6          1           0        2.792440    0.838430    0.157460
      7          1           0        2.470306   -0.222077   -1.222500
      8          1           0        3.071246   -0.904935    0.296048
      9          1           0        0.930972   -0.290411    1.448742
     10          1           0        0.607090   -1.340193    0.076229
     11          1           0        0.321676    1.712075    0.061333
     12          1           0        0.020403    0.662458   -1.324020
     13          1           0       -2.068382    1.343067   -0.160860
     14          1           0       -1.497807    0.560968    1.330379
     15          1           0       -2.824812   -0.858215    0.049612
 ---------------------------------------------------------------------
 Rotational constants (GHZ):     12.4736211      2.3535176      2.1712824
 Leave Link  202 at Fri Mar 20 17:26:56 2026, MaxMem=   536870912 cpu:         0.0
 (Enter C:\G09W\l301.exe)
 Standard basis: 6-31G(d) (6D, 7F)
 Ernie: Thresh=  0.10000D-02 Tol=  0.10000D-05 Strict=F.
 There are    95 symmetry adapted cartesian basis functions of A   symmetry.
 There are    95 symmetry adapted basis functions of A   symmetry.
    95 basis functions,   180 primitive gaussians,    95 cartesian basis functions
[...]
 ! A6    A(7,1,8)              107.6118         -DE/DX =    0.0                 !
 ! A7    A(1,2,3)              112.9295         -DE/DX =    0.0                 !
 ! A8    A(1,2,9)              109.5018         -DE/DX =    0.0                 !
 ! A9    A(1,2,10)             109.9829         -DE/DX =    0.0                 !
 ! A10   A(3,2,9)              109.0742         -DE/DX =    0.0                 !
 ! A11   A(3,2,10)             108.7986         -DE/DX =    0.0                 !
 ! A12   A(9,2,10)             106.3347         -DE/DX =    0.0                 !
 ! A13   A(2,3,4)              113.6977         -DE/DX =    0.0                 !
 ! A14   A(2,3,11)             109.937          -DE/DX =    0.0                 !
 ! A15   A(2,3,12)             109.7263         -DE/DX =    0.0                 !
 ! A16   A(4,3,11)             108.2175         -DE/DX =    0.0                 !
 ! A17   A(4,3,12)             108.3195         -DE/DX =    0.0                 !
 ! A18   A(11,3,12)            106.6886         -DE/DX =    0.0                 !
 ! A19   A(3,4,5)              108.3312         -DE/DX =    0.0                 !
 ! A20   A(3,4,13)             109.6889         -DE/DX =    0.0                 !
 ! A21   A(3,4,14)             109.6884         -DE/DX =    0.0                 !
 ! A22   A(5,4,13)             110.854          -DE/DX =    0.0                 !
 ! A23   A(5,4,14)             110.9227         -DE/DX =    0.0                 !
 ! A24   A(13,4,14)            107.3489         -DE/DX =    0.0                 !
 ! A25   A(4,5,15)             107.9569         -DE/DX =    0.0                 !
 ! D1    D(6,1,2,3)             59.681          -DE/DX =    0.0                 !
 ! D2    D(6,1,2,9)            -62.0707         -DE/DX =    0.0                 !
 ! D3    D(6,1,2,10)          -178.5747         -DE/DX =    0.0                 !
 ! D4    D(7,1,2,3)            -60.1387         -DE/DX =    0.0                 !
 ! D5    D(7,1,2,9)            178.1096         -DE/DX =    0.0                 !
 ! D6    D(7,1,2,10)            61.6056         -DE/DX =    0.0                 !
 ! D7    D(8,1,2,3)            179.8611         -DE/DX =    0.0                 !
 ! D8    D(8,1,2,9)             58.1094         -DE/DX =    0.0                 !
 ! D9    D(8,1,2,10)           -58.3947         -DE/DX =    0.0                 !
 ! D10   D(1,2,3,4)            178.9899         -DE/DX =    0.0                 !
 ! D11   D(1,2,3,11)           -59.5175         -DE/DX =    0.0                 !
 ! D12   D(1,2,3,12)            57.5206         -DE/DX =    0.0                 !
 ! D13   D(9,2,3,4)            -59.0177         -DE/DX =    0.0                 !
 ! D14   D(9,2,3,11)            62.4749         -DE/DX =    0.0                 !
 ! D15   D(9,2,3,12)           179.513          -DE/DX =    0.0                 !
 ! D16   D(10,2,3,4)            56.5805         -DE/DX =    0.0                 !
 ! D17   D(10,2,3,11)          178.073          -DE/DX =    0.0                 !
 ! D18   D(10,2,3,12)          -64.8889         -DE/DX =    0.0                 !
 ! D19   D(2,3,4,5)            -63.2925         -DE/DX =    0.0                 !
 ! D20   D(2,3,4,13)           175.5854         -DE/DX =    0.0                 !
 ! D21   D(2,3,4,14)            57.9132         -DE/DX =    0.0                 !
 ! D22   D(11,3,4,5)           174.2621         -DE/DX =    0.0                 !
 ! D23   D(11,3,4,13)           53.14           -DE/DX =    0.0                 !
 ! D24   D(11,3,4,14)          -64.5321         -DE/DX =    0.0                 !
 ! D25   D(12,3,4,5)            58.9573         -DE/DX =    0.0                 !
 ! D26   D(12,3,4,13)          -62.1648         -DE/DX =    0.0                 !
 ! D27   D(12,3,4,14)         -179.837          -DE/DX =    0.0                 !
 ! D28   D(3,4,5,15)           176.6319         -DE/DX =    0.0                 !
 ! D29   D(13,4,5,15)          -62.969          -DE/DX =    0.0                 !
 ! D30   D(14,4,5,15)           56.1917         -DE/DX =    0.0                 !
 --------------------------------------------------------------------------------
 GradGradGradGradGradGradGradGradGradGradGradGradGradGradGradGradGradGrad

 Leave Link  103 at Fri Mar 20 17:28:47 2026, MaxMem=   536870912 cpu:         0.0
 (Enter C:\G09W\l9999.exe)
 1|1|UNPC-DESKTOP-GS7R1K3|Freq|RB3LYP|6-31G(d)|C4H10O1|1172|20-Mar-2026
 |0||#P Geom=AllCheck Guess=TCheck SCRF=Check GenChk RB3LYP/6-31G(d) Fr
 eq||1-butanol ml||0,1|C,-2.0917611362,-0.2767197055,0.5673604207|C,-0.
 6022491038,-0.6303228566,0.5203394108|C,0.1417029744,0.0675390315,-0.6
 250358421|C,1.6308340313,-0.2530899009,-0.6733704463|O,2.2341527354,0.
 2372968817,0.5218105758|H,-2.5996971908,-0.5605455684,-0.3631401082|H,
 -2.2387120144,0.8014583066,0.707261418|H,-2.5984989136,-0.7903027279,1
 .3924721108|H,-0.4864713869,-1.7188817589,0.4136048766|H,-0.1232720638
 ,-0.3609252412,1.4684624914|H,-0.3027677915,-0.2175220865,-1.589458316
 6|H,0.0256630978,1.1561982932,-0.5336537618|H,2.0831779855,0.216274678
 2,-1.5624927263|H,1.7735174278,-1.3431481376,-0.7682266318|H,3.1690903
 487,-0.0161922077,0.5101715291||Version=EM64W-G09RevD.01|State=1-A|HF=
 -233.6614778|RMSD=2.502e-009|RMSF=2.428e-005|ZeroPoint=0.1378438|Therm
 al=0.1445614|Dipole=0.3546304,-0.2993133,-0.372552|DipoleDeriv=0.06316
 85,0.014948,0.0098482,-0.023648,0.1221389,0.0213562,0.0641453,0.008470
 9,0.1153053,0.0992884,-0.0016729,0.0026429,0.033551,0.1597005,0.013404
 5,-0.0282774,0.0190667,0.0960101,-0.0085909,0.0105407,0.0120054,0.0454
 144,0.1299002,0.0191807,0.0108096,0.0247898,0.1397556,0.5121148,0.1052
 715,0.1928361,0.0848043,0.4680059,0.0950529,0.2331169,0.0783614,0.6629
 549,-0.502715,-0.1644505,-0.2346838,-0.1835729,-0.5121081,-0.0698775,-
 0.2694812,-0.0571881,-0.732535,-0.0322148,-0.0079755,-0.0600093,-0.015
 66,0.0354929,-0.0535174,-0.1176585,-0.0503294,-0.1141561,0.0140271,0.0
 107854,0.0011664,0.0613396,-0.163285,-0.0323778,-0.0064356,-0.018525,0
 .0553996,-0.0666719,-0.0375229,0.0892697,-0.0534723,0.0124123,0.083187
 8,0.1079674,0.0780651,-0.0720554,-0.0177033,0.0448971,0.0235669,0.0340
 565,-0.1940555,0.0047498,0.0271398,-0.0253418,0.024518,-0.0040862,-0.0
 085611,-0.063264,-0.0120854,0.0381059,-0.0293067,-0.0612469,-0.0179297
 ,-0.1030024,-0.02909,-0.0223233,-0.069855,-0.0384129,0.0281781,-0.0496
 511,-0.0525062,-0.0243133,-0.1435209,0.008637,0.0282388,0.0194307,0.02
 38084,-0.1617192,0.0080783,0.0409879,-0.0163518,0.0270826,-0.1121567,-
 0.0512372,0.0916834,-0.0720762,-0.0283492,0.0842291,0.054713,0.0610895
 ,-0.2017005,-0.0318202,0.0184496,-0.0177929,0.032338,-0.240959,-0.0592
 635,-0.0550757,-0.0164371,-0.0297191,0.1078133,0.060612,0.0031557,0.08
 36154,0.3065412,-0.0352455,0.0518017,-0.0434272,0.2756635|Polar=54.372
 9874,0.340636,42.8212958,-1.6032235,-0.0193154,45.2764463|PG=C01 [X(C4
 H10O1)]|NImag=0||0.48428293,0.02342694,0.56794317,-0.00026408,-0.00382
 208,0.57603898,-0.18884567,0.02741902,-0.00010930,0.48836316,0.0268589
 8,-0.08810460,-0.00056491,-0.00209886,0.56711988,0.00096934,-0.0010082
 0,-0.08135768,0.04509117,0.03626493,0.54359257,-0.02105032,-0.01608208
 ,0.02803511,-0.09987172,-0.02169856,0.03251197,0.49309775,0.00145072,0
 .00472646,-0.00673666,-0.02189002,-0.10708840,0.03787252,-0.00279162,0
 .57340293,0.00490694,-0.00062970,-0.00101515,0.03443781,0.03880085,-0.
 14299711,0.03720467,0.03626742,0.54672365,0.00001861,-0.00092740,0.001
 32798,-0.02139496,0.00061509,0.00779105,-0.18845194,0.03310505,0.01875
 768,0.50850883,-0.00115697,-0.00248544,0.00282775,-0.01579113,0.004559
 88,-0.00132785,0.02658510,-0.09140205,-0.00228699,-0.00575597,0.577944
 04,0.00140402,0.00281718,-0.00592543,0.02815808,-0.00777901,0.00169061
 ,0.00928672,0.00122013,-0.08026808,-0.04300576,-0.03021001,0.52312073,
 0.00022068,-0.00015637,-0.00061059,0.00135424,-0.00019812,0.00022966,-
 0.02363893,-0.01546401,-0.04078223,-0.11163432,-0.02300276,-0.06478678
 ,0.59181917,0.00015364,0.00013761,-0.00020964,-0.00017385,0.00024040,0
 .00015466,0.00114097,0.00534732,0.00551636,0.00004112,-0.09127778,-0.0
 4714645,-0.10289614,0.12938129,0.00010203,-0.00016250,0.00125149,0.000
 40062,0.00075090,-0.00145430,-0.00970966,-0.00230280,-0.00430215,-0.02
 444451,-0.05858140,-0.18698181,0.07456594,0.10321351,0.27580582,-0.101
 47999,-0.03112695,-0.09874630,-0.01588962,-0.00967378,-0.02928750,0.00
 183344,-0.00011918,-0.00199636,-0.00011867,0.00028968,-0.00029304,-0.0
 0000183,-0.00011327,0.00042421,0.11179542,-0.03120352,-0.06895512,-0.0
 5841921,0.00415539,0.00209927,0.00826499,-0.00038402,-0.00007715,-0.00
 026169,-0.00011136,-0.00004812,0.00022655,0.00013021,0.00001961,0.0000
 0226,0.03278163,0.06890149,-0.09885612,-0.05839139,-0.23780211,0.00046
 237,0.00108696,0.00140445,0.00057524,0.00023878,0.00099795,-0.00011196
 ,-0.00001798,0.00022798,0.00008453,-0.00001009,0.00005186,0.10987827,0
 .06474429,0.25672332,-0.05261782,0.02970655,0.00392451,-0.00428516,0.0
 3444513,0.00498684,0.00185555,0.00138647,-0.00076799,-0.00009571,0.000
 07408,-0.00021280,-0.00004001,-0.00016783,0.00001994,0.00144761,-0.015
 21322,-0.00064417,0.05756456,0.03007430,-0.30113682,-0.03319969,0.0014
 8821,-0.00743788,-0.00064038,-0.00073205,0.00047496,0.00031862,-0.0000
 6087,0.00037385,-0.00001201,0.00013844,0.00010713,0.00001339,0.0003647
 1,-0.00758069,-0.00078194,-0.03502324,0.32734280,0.00393822,-0.0331776
 9,-0.05509494,0.00002644,-0.00009607,-0.00074602,-0.00020016,-0.001052
 02,0.00007935,0.00012435,0.00015444,0.00004629,-0.00003473,-0.00000046
 ,-0.00010065,0.00413870,-0.02909520,-0.00295008,-0.00446042,0.03651041
 ,0.05324886,-0.10163330,-0.05631963,0.08909723,-0.01406884,-0.01697597
 ,0.02578601,-0.00635365,0.00339621,-0.00201847,-0.00002432,-0.00124736
 ,0.00219042,-0.00006151,-0.00001474,-0.00039157,0.00738919,0.00856280,
 -0.01118249,0.00150831,0.00143480,-0.00397599,0.11114888,-0.05672158,-
 0.10888787,0.09433903,0.00435323,0.00385832,-0.00811945,0.00135556,-0.
 00018068,0.00008698,0.00040906,0.00065471,-0.00018167,-0.00003185,-0.0
 0004335,-0.00003928,0.00545562,0.00448498,-0.00758863,-0.01484149,-0.0
 1457473,0.02586518,0.06090461,0.11373974,0.08957893,0.09425693,-0.2002
 3640,-0.00105630,-0.00095223,0.00034627,0.00048058,-0.00061086,0.00092
 086,-0.00041100,0.00037026,0.00007270,0.00025887,0.00001084,0.00012476
 ,0.01290922,0.01412048,-0.02076720,-0.00339333,-0.00239608,0.00431337,
 -0.09877713,-0.10422423,0.21419960,-0.00504031,0.03474749,0.00433248,-
 0.05123143,0.02336290,0.00112837,0.00014077,-0.01651128,-0.00166304,0.
 00131181,-0.00181667,-0.00054844,-0.00014904,0.00051378,-0.00004654,0.
 00153071,-0.00049998,-0.00041823,-0.00684032,0.00167171,0.00006119,0.0
 0138294,-0.00054769,0.00025861,0.05827894,0.00111578,-0.00688030,-0.00
 097490,0.02365210,-0.29316003,-0.02766009,0.00063978,-0.01712134,-0.00
 119970,0.00114716,-0.00029872,-0.00070954,-0.00027363,0.00041135,0.000
 01691,0.00016722,0.00045300,0.00050332,0.00148446,0.00133572,0.0001213
 2,0.00039233,0.00055355,-0.00036800,-0.02660891,0.32119323,-0.00008631
 ,-0.00093309,-0.00047088,0.00120939,-0.02820939,-0.05463173,-0.0013955
 3,0.02775546,0.00159221,-0.00123084,0.00036077,0.00097570,-0.00015851,
 -0.00003917,-0.00009683,0.00032311,0.00063017,0.00025908,0.00046043,0.
 00035777,0.00097461,-0.00002415,-0.00031199,-0.00003801,-0.00511440,0.
 02795412,0.05591624,-0.01617347,-0.00869342,-0.02877107,-0.09747237,-0
 .02829910,-0.09944571,0.00736723,0.00457567,0.01523983,0.00104866,0.00
 082898,0.00054546,-0.00175407,-0.00045830,0.00018454,-0.00629290,0.002
 04437,0.00074719,0.00156516,0.00020432,0.00017866,0.00118175,-0.000608
 68,0.00033269,0.00170561,0.00063495,0.00393568,0.10976327,0.00424694,0
 .00202570,0.00806126,-0.02823947,-0.07030450,-0.05900778,0.00690970,0.
 00412954,0.01508663,0.00016339,0.00040412,-0.00072208,-0.00047813,-0.0
 0036915,0.00042806,0.00211970,0.00059816,0.00044195,-0.00044717,0.0004
 9625,0.00057961,-0.00056521,0.00005867,-0.00023269,-0.01454439,-0.0085
 3788,-0.02919650,0.03147599,0.07142707,0.00118773,0.00095203,0.0028086
 4,-0.09741908,-0.05800620,-0.24423294,-0.00906911,-0.00667863,-0.02438
 365,-0.00210816,-0.00054558,-0.00172642,-0.00034956,-0.00006303,0.0016
 1854,0.00109353,-0.00006124,0.00140598,-0.00031431,0.00035805,0.000162
 40,-0.00052672,0.00009606,0.00065571,-0.00085514,-0.00144727,-0.002377
 45,0.10547472,0.06203090,0.26685014,0.00165457,0.00051968,0.00069978,0
 .00612661,0.00477464,0.01513321,-0.09254953,-0.02573154,-0.08857525,-0
 .00912286,-0.01195040,-0.02998951,-0.00852310,0.00266841,0.00066432,-0
 .00019042,-0.00023242,-0.00046927,-0.00008418,0.00001052,0.00002244,0.
 00018826,-0.00003368,-0.00022827,0.00037821,0.00030897,-0.00079279,-0.
 00148326,-0.00168233,0.00289736,0.10142342,0.00062017,0.00021632,-0.00
 054389,0.00653460,0.00405895,0.01555268,-0.02704261,-0.06895012,-0.059
 94725,0.00317042,0.00050506,0.00725615,0.00144673,0.00031973,-0.000119
 51,-0.00008050,0.00015903,-0.00027923,-0.00011658,-0.00001870,-0.00010
 230,0.00027407,-0.00012349,-0.00002028,0.00079116,0.00084756,-0.000359
 54,-0.00175002,-0.00054887,0.00300659,0.03131213,0.07042718,-0.0015062
 6,-0.00043243,0.00080961,-0.00994213,-0.00676552,-0.02418532,-0.090631
 59,-0.05997951,-0.23949159,0.00143734,0.00010678,-0.00055434,0.0002322
 5,0.00028055,0.00140785,0.00123940,0.00002108,0.00045458,0.00009185,0.
 00000967,-0.00000277,0.00008191,0.00024380,0.00048704,-0.00022368,0.00
 035371,0.00113665,0.00316294,0.00317936,-0.00289660,0.09740789,0.06393
 502,0.26411468,0.00108546,-0.00118686,-0.00059623,0.00053479,-0.016250
 86,-0.00145689,-0.05202438,0.02397830,0.00145756,-0.00622930,0.0372944
 2,0.00441113,0.00299439,-0.00171873,0.00043338,-0.00006834,-0.00003789
 ,-0.00000339,-0.00021161,0.00056408,0.00022977,0.00015559,0.00027174,-
 0.00007778,-0.00123640,-0.00146967,0.00298428,0.00040151,0.00083434,-0
 .00025495,0.00145418,-0.01434054,-0.00081663,0.05791247,0.00087996,0.0
 0050165,-0.00064921,0.00095887,-0.01647907,-0.00084582,0.02598082,-0.2
 9818503,-0.02346670,0.00108203,-0.00925005,-0.00160730,-0.00042066,0.0
 0137105,0.00064740,-0.00006365,-0.00002145,0.00001429,-0.00089502,0.00
 058731,0.00021609,-0.00003303,0.00048113,0.00009407,-0.00146354,-0.000
 06014,0.00288863,0.00020102,0.00071368,0.00021834,0.00064759,-0.007917
 89,-0.00126408,-0.02863252,0.32605922,-0.00119000,0.00012505,0.0008686
 5,-0.00161967,0.02719008,0.00191336,0.00246804,-0.02369667,-0.05316752
 ,-0.00037180,-0.00203728,-0.00099352,0.00015404,0.00104344,0.00059561,
 0.00011425,-0.00015394,-0.00002187,0.00033972,-0.00058244,0.00011349,-
 0.00033886,-0.00016957,-0.00005230,0.00295107,0.00306101,-0.00353339,-
 0.00075686,-0.00030357,0.00100132,0.00419802,-0.02869006,-0.00242716,-
 0.00628469,0.02437816,0.05507415,-0.00025739,-0.00123798,0.00193845,-0
 .00596848,0.00374188,-0.00223484,-0.01450696,-0.01720906,0.02677450,-0
 .09768478,-0.04582164,0.08150706,0.00811404,0.00486308,-0.01997302,-0.
 00000317,-0.00003750,-0.00010848,-0.00000146,0.00013006,0.00000683,-0.
 00086417,0.00015784,0.00007466,0.00016448,-0.00007202,-0.00033759,0.00
 014566,0.00014511,0.00012522,0.00085705,-0.00039440,-0.00052168,0.0014
 9073,0.00047753,-0.00022781,0.10320579,0.00026888,0.00046822,-0.000123
 32,0.00073034,-0.00006371,0.00023438,0.00508475,0.00367836,-0.00668664
 ,-0.04785505,-0.10811736,0.08682070,0.00551511,0.01045451,-0.01615771,
 -0.00001690,-0.00000916,-0.00001312,-0.00013672,0.00003023,0.00000488,
 0.00010562,-0.00003623,-0.00001459,0.00026472,0.00056342,-0.00022997,-
 0.00009423,-0.00003194,0.00007836,-0.00074895,0.00012955,0.00009100,-0
 .00055671,0.00084011,-0.00042880,0.05143495,0.10740096,-0.00017296,0.0
 0014639,-0.00001908,-0.00000568,-0.00027768,0.00113071,0.00082964,0.00
 097841,0.00067318,0.08062518,0.08527908,-0.19173019,-0.00020897,0.0026
 1224,-0.03921036,0.00005949,0.00000108,0.00001795,0.00001271,-0.000019
 54,-0.00001628,0.00003807,-0.00002135,-0.00003311,-0.00001971,0.000055
 64,0.00001808,-0.00042187,-0.00006213,0.00037410,0.00062693,-0.0000042
 1,0.00076099,-0.00005452,-0.00023040,-0.00019023,-0.08366277,-0.090004
 72,0.22462505,-0.00009800,-0.00007997,-0.00011509,0.00206363,0.0012913
 2,-0.00095038,-0.00516638,0.03436308,0.00222781,-0.05881171,0.03349596
 ,0.00425870,0.00142664,-0.01827517,-0.00959151,0.00004698,0.00002763,-
 0.00000953,0.00021030,-0.00025175,-0.00006565,0.00001604,-0.00013309,0
 .00003359,-0.00025450,-0.00096130,0.00024819,-0.00014278,-0.00006407,0
 .00024394,0.00105096,-0.00069769,-0.00031927,-0.00682819,0.00148667,0.
 00050021,0.00385691,-0.01476659,0.00129998,0.06134753,0.00002224,0.000
 52741,0.00000026,-0.00104355,0.00040208,0.00033203,0.00175413,-0.00757
 089,0.00041932,0.03357777,-0.28279999,-0.00633032,-0.00571381,-0.00853
 949,-0.01354347,0.00000254,-0.00003964,0.00002193,-0.00028073,0.000023
 12,0.00008005,0.00010017,0.00000620,-0.00004576,0.00070080,0.00083174,
 -0.00065129,-0.00002619,0.00003057,0.00005197,0.00073702,0.00012598,0.
 00036441,0.00143175,0.00108297,0.00038995,0.00309143,-0.01536403,0.001
 94561,-0.03439733,0.31072121,0.00002659,0.00011766,0.00001935,-0.00016
 516,-0.00124614,-0.00014141,0.00120180,-0.00043184,0.00127652,0.002682
 67,-0.00354493,-0.05408466,-0.00395622,-0.03823667,-0.01424206,-0.0000
 0366,-0.00000715,-0.00000654,-0.00003106,0.00006733,-0.00002996,-0.000
 01741,-0.00000051,0.00000278,0.00009521,0.00016464,0.00014486,-0.00011
 692,-0.00008000,0.00010026,0.00038093,0.00006757,0.00013276,-0.0004506
 7,-0.00043914,0.00093133,-0.00321377,0.02557346,0.00329551,0.00179433,
 0.01763924,0.06167481,-0.00006600,-0.00000902,-0.00014288,0.00058582,0
 .00010533,-0.00025231,-0.00068093,-0.00253881,-0.00520347,-0.01731933,
 0.00797468,0.00707474,-0.46012635,0.11443703,-0.01263816,0.00000159,0.
 00001787,0.00005603,0.00002477,-0.00001323,0.00001032,0.00003484,0.000
 01040,0.00001666,-0.00014147,-0.00015722,-0.00002094,0.00014001,0.0001
 2561,-0.00012547,-0.00117990,0.00027306,0.00030766,0.00056913,-0.00020
 607,0.00006434,0.00145176,0.00077077,0.00105448,0.00128256,0.00004376,
 0.00177335,0.47542349,-0.00003647,-0.00009639,0.00001524,-0.00005489,0
 .00029941,-0.00006663,-0.00071987,-0.00118390,-0.00201750,-0.01860045,
 0.00123785,-0.00364232,0.14140498,-0.04756021,-0.01416576,0.00001314,0
 .00001577,0.00003085,0.00002531,-0.00002253,-0.00000823,-0.00001467,0.
 00000905,0.00001214,-0.00006010,-0.00013117,-0.00001600,-0.00003538,-0
 .00009142,0.00000965,-0.00059963,0.00076970,-0.00014384,-0.00018085,0.
 00027653,-0.00012536,0.00073073,0.00005706,-0.00039842,-0.00103770,0.0
 0056275,0.00035647,-0.12083416,0.04585749,-0.00003807,0.00014184,0.000
 12496,0.00053144,-0.00019657,-0.00033146,-0.00158772,-0.00284374,-0.00
 663847,-0.04106223,0.00945294,-0.00386956,0.03536229,-0.02712609,-0.03
 446778,0.00014669,-0.00001246,0.00000466,-0.00001193,-0.00000315,0.000
 00232,0.00005915,0.00002563,0.00000395,0.00006226,0.00012884,0.0001308
 8,-0.00028929,-0.00020303,0.00063998,-0.00197580,0.00024827,0.00025362
 ,0.00047963,0.00004567,-0.00011190,-0.00014676,0.00085608,0.00030368,0
 .00044469,-0.00067393,0.00092645,0.00802566,0.02015970,0.04302866||0.0
 0002873,-0.00000346,0.00000789,-0.00000892,0.00000502,-0.00000822,-0.0
 0001703,-0.00000064,-0.00000991,0.00005495,0.00003910,0.00010369,-0.00
 001507,-0.00004665,-0.00007764,-0.00001124,0.00000888,0.00000165,-0.00
 000297,0.00000395,0.00000722,-0.00000889,0.00000174,0.00000369,-0.0000
 0310,0.00000085,-0.00000063,0.00000369,-0.00000375,-0.00000097,-0.0000
 0361,0.00000262,-0.00000068,0.00000233,-0.00000062,0.00000496,-0.00000
 178,-0.00000101,-0.00001651,-0.00001596,-0.00000595,-0.00001678,-0.000
 00112,-0.00000008,0.00000224|||@


 IF IT HAPPENS, IT MUST BE POSSIBLE.

 -- THE UNNAMED LAW FROM PAUL DICKSON'S 
    "THE OFFICIAL RULES"
 Job cpu time:       0 days  0 hours  0 minutes 58.0 seconds.
 File lengths (MBytes):  RWF=     20 Int=      0 D2E=      0 Chk=      2 Scr=      1
 Normal termination of Gaussian 09 at Fri Mar 20 17:28:47 2026.
