 Entering Gaussian System, Link 0=C:\G09W\g09.exe
 Input=1-propanol_rdkit.com
 Output=C:\workspace\delta_chem\data\raw\1-propanol\1-propanol_rdkit.out
 Initial command:
 C:\G09W\l1.exe ".\Gau-16700.inp" "C:\workspace\delta_chem\data\raw\1-propanol\1-propanol_rdkit.out" /scrdir=".\"
 Entering Link 1 = C:\G09W\l1.exe PID=      6872.
  
 Copyright (c) 1988,1990,1992,1993,1995,1998,2003,2009,2013,
            Gaussian, Inc.  All Rights Reserved.
  
 This is part of the Gaussian(R) 09 program.  It is based on
 the Gaussian(R) 03 system (copyright 2003, Gaussian, Inc.),
 the Gaussian(R) 98 system (copyright 1998, Gaussian, Inc.),
 the Gaussian(R) 94 system (copyright 1995, Gaussian, Inc.),
 the Gaussian 92(TM) system (copyright 1992, Gaussian, Inc.),
 the Gaussian 90(TM) system (copyright 1990, Gaussian, Inc.),
 the Gaussian 88(TM) system (copyright 1988, Gaussian, Inc.),
 the Gaussian 86(TM) system (copyright 1986, Carnegie Mellon
 University), and the Gaussian 82(TM) system (copyright 1983,
 Carnegie Mellon University). Gaussian is a federally registered
 trademark of Gaussian, Inc.
  
 This software contains proprietary and confidential information,
 including trade secrets, belonging to Gaussian, Inc.
  
 This software is provided under written license and may be
 used, copied, transmitted, or stored only in accord with that
 written license.
  
 The following legend is applicable only to US Government
 contracts under FAR:
  
                    RESTRICTED RIGHTS LEGEND
  
 Use, reproduction and disclosure by the US Government is
 subject to restrictions as set forth in subparagraphs (a)
 and (c) of the Commercial Computer Software - Restricted
 Rights clause in FAR 52.227-19.
  
 Gaussian, Inc.
 340 Quinnipiac St., Bldg. 40, Wallingford CT 06492
  
  
 ---------------------------------------------------------------
 Warning -- This program may not be used in any manner that
 competes with the business of Gaussian, Inc. or will provide
 assistance to any competitor of Gaussian, Inc.  The licensee
 of this program is prohibited from giving any competitor of
 Gaussian, Inc. access to this program.  By using this program,
 the user acknowledges that Gaussian, Inc. is engaged in the
 business of creating and licensing software in the field of
 computational chemistry and represents and warrants to the
 licensee that it is not a competitor of Gaussian, Inc. and that
 it will not use this program in any manner prohibited above.
 ---------------------------------------------------------------
  

 Cite this work as:
 Gaussian 09, Revision D.01,
 M. J. Frisch, G. W. Trucks, H. B. Schlegel, G. E. Scuseria, 
 M. A. Robb, J. R. Cheeseman, G. Scalmani, V. Barone, B. Mennucci, 
 G. A. Petersson, H. Nakatsuji, M. Caricato, X. Li, H. P. Hratchian, 
 A. F. Izmaylov, J. Bloino, G. Zheng, J. L. Sonnenberg, M. Hada, 
 M. Ehara, K. Toyota, R. Fukuda, J. Hasegawa, M. Ishida, T. Nakajima, 
 Y. Honda, O. Kitao, H. Nakai, T. Vreven, J. A. Montgomery, Jr., 
 J. E. Peralta, F. Ogliaro, M. Bearpark, J. J. Heyd, E. Brothers, 
 K. N. Kudin, V. N. Staroverov, T. Keith, R. Kobayashi, J. Normand, 
 K. Raghavachari, A. Rendell, J. C. Burant, S. S. Iyengar, J. Tomasi, 
 M. Cossi, N. Rega, J. M. Millam, M. Klene, J. E. Knox, J. B. Cross, 
 V. Bakken, C. Adamo, J. Jaramillo, R. Gomperts, R. E. Stratmann, 
 O. Yazyev, A. J. Austin, R. Cammi, C. Pomelli, J. W. Ochterski, 
 R. L. Martin, K. Morokuma, V. G. Zakrzewski, G. A. Voth, 
 P. Salvador, J. J. Dannenberg, S. Dapprich, A. D. Daniels, 
 O. Farkas, J. B. Foresman, J. V. Ortiz, J. Cioslowski, 
 and D. J. Fox, Gaussian, Inc., Wallingford CT, 2013.
 
 ******************************************
 Gaussian 09:  EM64W-G09RevD.01 13-Apr-2013
                19-Mar-2026 
 ******************************************
 %NProcShared=4
 Will use up to    4 processors via shared memory.
 %Mem=4GB
 %Chk=1-propanol_rdkit.chk
 ---------------------
 #p opt B3LYP/6-31G(d)
 ---------------------
 1/14=-1,18=20,19=15,26=3,38=1/1,3;
 2/9=110,12=2,17=6,18=5,40=1/2;
 3/5=1,6=6,7=1,11=2,16=1,25=1,30=1,71=1,74=-5/1,2,3;
 4//1;
 5/5=2,38=5/2;
 6/7=2,8=2,9=2,10=2,28=1/1;
 7//1,2,3,16;
 1/14=-1,18=20,19=15,26=3/3(2);
 2/9=110/2;
 99//99;
 2/9=110/2;
 3/5=1,6=6,7=1,11=2,16=1,25=1,30=1,71=1,74=-5/1,2,3;
 4/5=5,16=3,69=1/1;
 5/5=2,38=5/2;
 7//1,2,3,16;
 1/14=-1,18=20,19=15,26=3/3(-5);
 2/9=110/2;
 6/7=2,8=2,9=2,10=2,19=2,28=1/1;
 99/9=1/99;
 Leave Link    1 at Thu Mar 19 18:24:23 2026, MaxMem=   536870912 cpu:         0.0
 (Enter C:\G09W\l101.exe)
 ----------
 1-propanol
 ----------
 Symbolic Z-matrix:
 Charge =  0 Multiplicity = 1
 C                    -1.27834   0.6481    0.24316 
 C                    -0.44294  -0.62321   0.19153 
 C                     1.04527  -0.33323   0.0507 
 O                     1.29717   0.31487  -1.18781 
 H                    -0.97557   1.2814    1.08315 
 H                    -2.33663   0.39902   0.37038 
 H                    -1.17792   1.22865  -0.67923 
 H                    -0.78186  -1.22642  -0.65873 
 H                    -0.61507  -1.20502   1.10369 
 H                     1.61274  -1.26898   0.07091 
 H                     1.39817   0.30946   0.86363 
 H                     2.25498   0.47535  -1.2363 
 
 NAtoms=     12 NQM=       12 NQMF=       0 NMMI=      0 NMMIF=      0
                NMic=       0 NMicF=      0.
                    Isotopes and Nuclear Properties:
 (Nuclear quadrupole moments (NQMom) in fm**2, nuclear magnetic moments (NMagM)
  in nuclear magnetons)

  Atom         1           2           3           4           5           6           7           8           9          10
 IAtWgt=          12          12          12          16           1           1           1           1           1           1
 AtmWgt=  12.0000000  12.0000000  12.0000000  15.9949146   1.0078250   1.0078250   1.0078250   1.0078250   1.0078250   1.0078250
 NucSpn=           0           0           0           0           1           1           1           1           1           1
 AtZEff=   0.0000000   0.0000000   0.0000000   0.0000000   0.0000000   0.0000000   0.0000000   0.0000000   0.0000000   0.0000000
 NQMom=    0.0000000   0.0000000   0.0000000   0.0000000   0.0000000   0.0000000   0.0000000   0.0000000   0.0000000   0.0000000
 NMagM=    0.0000000   0.0000000   0.0000000   0.0000000   2.7928460   2.7928460   2.7928460   2.7928460   2.7928460   2.7928460
 AtZNuc=   6.0000000   6.0000000   6.0000000   8.0000000   1.0000000   1.0000000   1.0000000   1.0000000   1.0000000   1.0000000

  Atom        11          12
 IAtWgt=           1           1
 AtmWgt=   1.0078250   1.0078250
 NucSpn=           1           1
 AtZEff=   0.0000000   0.0000000
 NQMom=    0.0000000   0.0000000
 NMagM=    2.7928460   2.7928460
 AtZNuc=   1.0000000   1.0000000
 Leave Link  101 at Thu Mar 19 18:24:24 2026, MaxMem=   536870912 cpu:         0.0
 (Enter C:\G09W\l103.exe)

 GradGradGradGradGradGradGradGradGradGradGradGradGradGradGradGradGradGrad
 Berny optimization.
 Initialization pass.
                           ----------------------------
                           !    Initial Parameters    !
                           ! (Angstroms and Degrees)  !
 --------------------------                            --------------------------
 ! Name  Definition              Value          Derivative Info.                !
 --------------------------------------------------------------------------------
 ! R1    R(1,2)                  1.5221         estimate D2E/DX2                !
 ! R2    R(1,5)                  1.0947         estimate D2E/DX2                !
 ! R3    R(1,6)                  1.0946         estimate D2E/DX2                !
 ! R4    R(1,7)                  1.0945         estimate D2E/DX2                !
 ! R5    R(2,3)                  1.5227         estimate D2E/DX2                !
 ! R6    R(2,8)                  1.0962         estimate D2E/DX2                !
 ! R7    R(2,9)                  1.0955         estimate D2E/DX2                !
 ! R8    R(3,4)                  1.4204         estimate D2E/DX2                !
 ! R9    R(3,10)                 1.0946         estimate D2E/DX2                !
 ! R10   R(3,11)                 1.0947         estimate D2E/DX2                !
 ! R11   R(4,12)                 0.9724         estimate D2E/DX2                !
 ! A1    A(2,1,5)              110.9424         estimate D2E/DX2                !
 ! A2    A(2,1,6)              110.1522         estimate D2E/DX2                !
 ! A3    A(2,1,7)              111.3511         estimate D2E/DX2                !
 ! A4    A(5,1,6)              108.0512         estimate D2E/DX2                !
 ! A5    A(5,1,7)              108.3267         estimate D2E/DX2                !
 ! A6    A(6,1,7)              107.8997         estimate D2E/DX2                !
 ! A7    A(1,2,3)              112.3641         estimate D2E/DX2                !
 ! A8    A(1,2,8)              108.435          estimate D2E/DX2                !
 ! A9    A(1,2,9)              109.2138         estimate D2E/DX2                !
 ! A10   A(3,2,8)              109.5862         estimate D2E/DX2                !
 ! A11   A(3,2,9)              109.372          estimate D2E/DX2                !
 ! A12   A(8,2,9)              107.7577         estimate D2E/DX2                !
 ! A13   A(2,3,4)              109.9298         estimate D2E/DX2                !
 ! A14   A(2,3,10)             110.01           estimate D2E/DX2                !
 ! A15   A(2,3,11)             110.9884         estimate D2E/DX2                !
 ! A16   A(4,3,10)             108.3154         estimate D2E/DX2                !
 ! A17   A(4,3,11)             108.8117         estimate D2E/DX2                !
 ! A18   A(10,3,11)            108.7268         estimate D2E/DX2                !
 ! A19   A(3,4,12)             107.067          estimate D2E/DX2                !
 ! D1    D(5,1,2,3)            -58.947          estimate D2E/DX2                !
 ! D2    D(5,1,2,8)            179.7715         estimate D2E/DX2                !
 ! D3    D(5,1,2,9)             62.6019         estimate D2E/DX2                !
 ! D4    D(6,1,2,3)           -178.5421         estimate D2E/DX2                !
 ! D5    D(6,1,2,8)             60.1763         estimate D2E/DX2                !
 ! D6    D(6,1,2,9)            -56.9932         estimate D2E/DX2                !
 ! D7    D(7,1,2,3)             61.7896         estimate D2E/DX2                !
 ! D8    D(7,1,2,8)            -59.492          estimate D2E/DX2                !
 ! D9    D(7,1,2,9)           -176.6615         estimate D2E/DX2                !
 ! D10   D(1,2,3,4)            -63.7964         estimate D2E/DX2                !
 ! D11   D(1,2,3,10)           177.0087         estimate D2E/DX2                !
 ! D12   D(1,2,3,11)            56.6328         estimate D2E/DX2                !
 ! D13   D(8,2,3,4)             56.8238         estimate D2E/DX2                !
 ! D14   D(8,2,3,10)           -62.3712         estimate D2E/DX2                !
 ! D15   D(8,2,3,11)           177.253          estimate D2E/DX2                !
 ! D16   D(9,2,3,4)            174.7451         estimate D2E/DX2                !
 ! D17   D(9,2,3,10)            55.5501         estimate D2E/DX2                !
 ! D18   D(9,2,3,11)           -64.8257         estimate D2E/DX2                !
 ! D19   D(2,3,4,12)          -179.7063         estimate D2E/DX2                !
 ! D20   D(10,3,4,12)          -59.4793         estimate D2E/DX2                !
 ! D21   D(11,3,4,12)           58.5573         estimate D2E/DX2                !
 --------------------------------------------------------------------------------
 Trust Radius=3.00D-01 FncErr=1.00D-07 GrdErr=1.00D-06
 Number of steps in this run=     61 maximum allowed number of steps=    100.
 GradGradGradGradGradGradGradGradGradGradGradGradGradGradGradGradGradGrad

 Leave Link  103 at Thu Mar 19 18:24:24 2026, MaxMem=   536870912 cpu:         0.0
 (Enter C:\G09W\l202.exe)
                          Input orientation:                          
 ---------------------------------------------------------------------
 Center     Atomic      Atomic             Coordinates (Angstroms)
 Number     Number       Type             X           Y           Z
 ---------------------------------------------------------------------
      1          6           0       -1.278343    0.648104    0.243158
      2          6           0       -0.442938   -0.623207    0.191527
      3          6           0        1.045269   -0.333233    0.050702
      4          8           0        1.297172    0.314870   -1.187807
      5          1           0       -0.975570    1.281404    1.083146
      6          1           0       -2.336630    0.399023    0.370378
      7          1           0       -1.177920    1.228649   -0.679229
      8          1           0       -0.781857   -1.226422   -0.658725
      9          1           0       -0.615071   -1.205017    1.103688
     10          1           0        1.612737   -1.268983    0.070913
     11          1           0        1.398173    0.309459    0.863633
     12          1           0        2.254977    0.475353   -1.236297
 ---------------------------------------------------------------------
                    Distance matrix (angstroms):
                    1          2          3          4          5
     1  C    0.000000
     2  C    1.522103   0.000000
     3  C    2.529671   1.522720   0.000000
     4  O    2.965128   2.410505   1.420351   0.000000
     5  H    1.094678   2.169383   2.785100   3.355111   0.000000
     6  H    1.094622   2.159401   3.475001   3.954686   1.771756
     7  H    1.094493   2.174347   2.813333   2.686954   1.774738
     8  H    2.138630   1.096204   2.153941   2.641566   3.059547
     9  H    2.148139   1.095523   2.150701   3.349280   2.512503
    10  H    3.473217   2.158095   1.094558   2.047571   3.772058
    11  H    2.768286   2.170549   1.094738   2.053932   2.574397
    12  H    3.834447   3.244112   1.942568   0.972366   4.057828
                    6          7          8          9         10
     6  H    0.000000
     7  H    1.769905   0.000000
     8  H    2.473549   2.486898   0.000000
     9  H    2.464641   3.068929   1.770417   0.000000
    10  H    4.297607   3.819508   2.503650   2.456388   0.000000
    11  H    3.768299   3.140317   3.070673   2.530695   1.779304
    12  H    4.865191   3.558449   3.528737   4.066491   2.272439
                   11         12
    11  H    0.000000
    12  H    2.274058   0.000000
 Stoichiometry    C3H8O
 Framework group  C1[X(C3H8O)]
 Deg. of freedom    30
 Full point group                 C1      NOp   1
 Largest Abelian subgroup         C1      NOp   1
 Largest concise Abelian subgroup C1      NOp   1
                         Standard orientation:                         
 ---------------------------------------------------------------------
 Center     Atomic      Atomic             Coordinates (Angstroms)
 Number     Number       Type             X           Y           Z
 ---------------------------------------------------------------------
      1          6           0        1.538294   -0.520946    0.128191
      2          6           0        0.648157    0.642269   -0.285798
      3          6           0       -0.755079    0.533438    0.295373
      4          8           0       -1.404625   -0.619609   -0.220349
      5          1           0        1.626319   -0.577765    1.217844
      6          1           0        2.543019   -0.393350   -0.287072
      7          1           0        1.142661   -1.474497   -0.235305
      8          1           0        0.591961    0.663315   -1.380358
      9          1           0        1.105974    1.581531    0.043385
     10          1           0       -1.344506    1.413122    0.018265
     11          1           0       -0.722786    0.461712    1.387282
     12          1           0       -2.293869   -0.645763    0.172153
 ---------------------------------------------------------------------
 Rotational constants (GHZ):     14.6639506      5.0522891      4.3000544
 Leave Link  202 at Thu Mar 19 18:24:24 2026, MaxMem=   536870912 cpu:         0.0
 (Enter C:\G09W\l301.exe)
 Standard basis: 6-31G(d) (6D, 7F)
 Ernie: Thresh=  0.10000D-02 Tol=  0.10000D-05 Strict=F.
 There are    76 symmetry adapted cartesian basis functions of A   symmetry.
 There are    76 symmetry adapted basis functions of A   symmetry.
    76 basis functions,   144 primitive gaussians,    76 cartesian basis functions
    17 alpha electrons       17 beta electrons
       nuclear repulsion energy       132.5725796910 Hartrees.
 IExCor=  402 DFT=T Ex+Corr=B3LYP ExCW=0 ScaHFX=  0.200000
 ScaDFX=  0.800000  0.720000  1.000000  0.810000 ScalE2=  1.000000  1.000000
 IRadAn=      0 IRanWt=     -1 IRanGd=            0 ICorTp=0 IEmpDi=  4
 NAtoms=   12 NActive=   12 NUniq=   12 SFac= 1.00D+00 NAtFMM=   60 NAOKFM=F Big=F
 Integral buffers will be    131072 words long.
 Raffenetti 2 integral format.
 Two-electron integral symmetry is turned on.
 Leave Link  301 at Thu Mar 19 18:24:25 2026, MaxMem=   536870912 cpu:         0.0
 (Enter C:\G09W\l302.exe)
 NPDir=0 NMtPBC=     1 NCelOv=     1 NCel=       1 NClECP=     1 NCelD=      1
         NCelK=      1 NCelE2=     1 NClLst=     1 CellRange=     0.0.
 One-electron integrals computed using PRISM.
 NBasis=    76 RedAO= T EigKep=  5.18D-03  NBF=    76
 NBsUse=    76 1.00D-06 EigRej= -1.00D+00 NBFU=    76
 Precomputing XC quadrature grid using
 IXCGrd= 4 IRadAn=           0 IRanWt=          -1 IRanGd=           0 AccXCQ= 0.00D+00.
 Generated NRdTot=       0 NPtTot=           0 NUsed=           0 NTot=          32
 NSgBfM=    76    76    76    76    76 MxSgAt=    12 MxSgA2=    12.
 Leave Link  302 at Thu Mar 19 18:24:25 2026, MaxMem=   536870912 cpu:         0.0
 (Enter C:\G09W\l303.exe)
 DipDrv:  MaxL=1.
 Leave Link  303 at Thu Mar 19 18:24:25 2026, MaxMem=   536870912 cpu:         0.0
 (Enter C:\G09W\l401.exe)
 ExpMin= 1.61D-01 ExpMax= 5.48D+03 ExpMxC= 8.25D+02 IAcc=1 IRadAn=         1 AccDes= 0.00D+00
 Harris functional with IExCor=  402 and IRadAn=       1 diagonalized for initial guess.
 HarFok:  IExCor=  402 AccDes= 0.00D+00 IRadAn=         1 IDoV= 1 UseB2=F ITyADJ=14
 ICtDFT=  3500011 ScaDFX=  1.000000  1.000000  1.000000  1.000000
 FoFCou: FMM=F IPFlag=           0 FMFlag=      100000 FMFlg1=           0
         NFxFlg=           0 DoJE=T BraDBF=F KetDBF=T FulRan=T
         wScrn=  0.000000 ICntrl=     500 IOpCl=  0 I1Cent=   200000004 NGrid=           0
         NMat0=    1 NMatS0=      1 NMatT0=    0 NMatD0=    1 NMtDS0=    0 NMtDT0=    0
 Petite list used in FoFCou.
 Harris En= -194.400931704185    
 JPrj=0 DoOrth=F DoCkMO=F.
 Leave Link  401 at Thu Mar 19 18:24:26 2026, MaxMem=   536870912 cpu:         1.0
 (Enter C:\G09W\l502.exe)
 Closed shell SCF:
 Using DIIS extrapolation, IDIIS=  1040.
 Integral symmetry usage will be decided dynamically.
 Keep R1 ints in memory in canonical form, NReq=5217425.
 IVT=       36922 IEndB=       36922 NGot=   536870912 MDV=   532551790
 LenX=   532551790 LenY=   532545573
 Requested convergence on RMS density matrix=1.00D-08 within 128 cycles.
 Requested convergence on MAX density matrix=1.00D-06.
 Requested convergence on             energy=1.00D-06.
 No special actions if energy rises.
 FoFCou: FMM=F IPFlag=           0 FMFlag=           0 FMFlg1=           0
         NFxFlg=           0 DoJE=F BraDBF=F KetDBF=F FulRan=T
         wScrn=  0.000000 ICntrl=     600 IOpCl=  0 I1Cent=           0 NGrid=           0
         NMat0=    1 NMatS0=   2926 NMatT0=    0 NMatD0=    1 NMtDS0=    0 NMtDT0=    0
 Symmetry not used in FoFCou.
 Integral accuracy reduced to 1.0D-05 until final iterations.

 Cycle   1  Pass 0  IDiag  1:
 E= -194.175530596050    
 DIIS: error= 3.86D-02 at cycle   1 NSaved=   1.
 NSaved= 1 IEnMin= 1 EnMin= -194.175530596050     IErMin= 1 ErrMin= 3.86D-02
 ErrMax= 3.86D-02  0.00D+00 EMaxC= 1.00D-01 BMatC= 1.71D-01 BMatP= 1.71D-01
 IDIUse=3 WtCom= 6.14D-01 WtEn= 3.86D-01
 Coeff-Com:  0.100D+01
 Coeff-En:   0.100D+01
 Coeff:      0.100D+01
 Gap=     0.266 Goal=   None    Shift=    0.000
 GapD=    0.266 DampG=1.000 DampE=0.500 DampFc=0.5000 IDamp=-1.
 Damping current iteration by 5.00D-01
 RMSDP=1.22D-02 MaxDP=1.39D-01              OVMax= 1.67D-01

 Cycle   2  Pass 0  IDiag  1:
 E= -194.246209466981     Delta-E=       -0.070678870931 Rises=F Damp=T
 DIIS: error= 9.26D-03 at cycle   2 NSaved=   2.
 NSaved= 2 IEnMin= 2 EnMin= -194.246209466981     IErMin= 2 ErrMin= 9.26D-03
 ErrMax= 9.26D-03  0.00D+00 EMaxC= 1.00D-01 BMatC= 9.60D-03 BMatP= 1.71D-01
 IDIUse=3 WtCom= 9.07D-01 WtEn= 9.26D-02
 Coeff-Com:  0.122D+00 0.878D+00
 Coeff-En:   0.186D+00 0.814D+00
 Coeff:      0.128D+00 0.872D+00
 Gap=     0.339 Goal=   None    Shift=    0.000
 RMSDP=1.87D-03 MaxDP=2.36D-02 DE=-7.07D-02 OVMax= 9.33D-02

 Cycle   3  Pass 0  IDiag  1:
 E= -194.344957600260     Delta-E=       -0.098748133279 Rises=F Damp=F
 DIIS: error= 3.73D-03 at cycle   3 NSaved=   3.
 NSaved= 3 IEnMin= 3 EnMin= -194.344957600260     IErMin= 3 ErrMin= 3.73D-03
 ErrMax= 3.73D-03  0.00D+00 EMaxC= 1.00D-01 BMatC= 1.93D-03 BMatP= 9.60D-03
 IDIUse=3 WtCom= 9.63D-01 WtEn= 3.73D-02
 Coeff-Com:  0.211D-01 0.281D+00 0.698D+00
 Coeff-En:   0.000D+00 0.000D+00 0.100D+01
 Coeff:      0.203D-01 0.271D+00 0.709D+00
 Gap=     0.329 Goal=   None    Shift=    0.000
 RMSDP=7.55D-04 MaxDP=1.25D-02 DE=-9.87D-02 OVMax= 1.21D-02

 Cycle   4  Pass 0  IDiag  1:
 E= -194.345870320948     Delta-E=       -0.000912720688 Rises=F Damp=F
 DIIS: error= 2.63D-03 at cycle   4 NSaved=   4.
 NSaved= 4 IEnMin= 4 EnMin= -194.345870320948     IErMin= 4 ErrMin= 2.63D-03
 ErrMax= 2.63D-03  0.00D+00 EMaxC= 1.00D-01 BMatC= 8.20D-04 BMatP= 1.93D-03
 IDIUse=3 WtCom= 9.74D-01 WtEn= 2.63D-02
 Coeff-Com:  0.155D-02 0.573D-01 0.400D+00 0.541D+00
 Coeff-En:   0.000D+00 0.000D+00 0.297D+00 0.703D+00
 Coeff:      0.151D-02 0.558D-01 0.397D+00 0.546D+00
 Gap=     0.332 Goal=   None    Shift=    0.000
 RMSDP=3.23D-04 MaxDP=5.61D-03 DE=-9.13D-04 OVMax= 4.93D-03

 Cycle   5  Pass 0  IDiag  1:
 E= -194.346508298094     Delta-E=       -0.000637977146 Rises=F Damp=F
 DIIS: error= 2.91D-04 at cycle   5 NSaved=   5.
 NSaved= 5 IEnMin= 5 EnMin= -194.346508298094     IErMin= 5 ErrMin= 2.91D-04
 ErrMax= 2.91D-04  0.00D+00 EMaxC= 1.00D-01 BMatC= 1.50D-05 BMatP= 8.20D-04
 IDIUse=3 WtCom= 9.97D-01 WtEn= 2.91D-03
 Coeff-Com: -0.162D-03 0.636D-03 0.933D-01 0.191D+00 0.715D+00
 Coeff-En:   0.000D+00 0.000D+00 0.000D+00 0.000D+00 0.100D+01
 Coeff:     -0.161D-03 0.635D-03 0.931D-01 0.191D+00 0.716D+00
 Gap=     0.332 Goal=   None    Shift=    0.000
 RMSDP=4.89D-05 MaxDP=4.86D-04 DE=-6.38D-04 OVMax= 7.27D-04

 Cycle   6  Pass 0  IDiag  1:
 E= -194.346520879262     Delta-E=       -0.000012581168 Rises=F Damp=F
 DIIS: error= 4.19D-05 at cycle   6 NSaved=   6.
 NSaved= 6 IEnMin= 6 EnMin= -194.346520879262     IErMin= 6 ErrMin= 4.19D-05
 ErrMax= 4.19D-05  0.00D+00 EMaxC= 1.00D-01 BMatC= 3.21D-07 BMatP= 1.50D-05
 IDIUse=1 WtCom= 1.00D+00 WtEn= 0.00D+00
 Coeff-Com: -0.186D-05-0.760D-03 0.299D-01 0.657D-01 0.279D+00 0.626D+00
 Coeff:     -0.186D-05-0.760D-03 0.299D-01 0.657D-01 0.279D+00 0.626D+00
 Gap=     0.332 Goal=   None    Shift=    0.000
 RMSDP=7.47D-06 MaxDP=1.40D-04 DE=-1.26D-05 OVMax= 1.72D-04

 Initial convergence to 1.0D-05 achieved.  Increase integral accuracy.
 Cycle   7  Pass 1  IDiag  1:
 E= -194.346567863234     Delta-E=       -0.000046983972 Rises=F Damp=F
 DIIS: error= 1.74D-05 at cycle   1 NSaved=   1.
 NSaved= 1 IEnMin= 1 EnMin= -194.346567863234     IErMin= 1 ErrMin= 1.74D-05
 ErrMax= 1.74D-05  0.00D+00 EMaxC= 1.00D-01 BMatC= 4.69D-08 BMatP= 4.69D-08
 IDIUse=1 WtCom= 1.00D+00 WtEn= 0.00D+00
 Coeff-Com:  0.100D+01
 Coeff:      0.100D+01
 Gap=     0.332 Goal=   None    Shift=    0.000
 RMSDP=7.47D-06 MaxDP=1.40D-04 DE=-4.70D-05 OVMax= 9.45D-05

 Cycle   8  Pass 1  IDiag  1:
 E= -194.346567876686     Delta-E=       -0.000000013451 Rises=F Damp=F
 DIIS: error= 1.66D-05 at cycle   2 NSaved=   2.
 NSaved= 2 IEnMin= 2 EnMin= -194.346567876686     IErMin= 2 ErrMin= 1.66D-05
 ErrMax= 1.66D-05  0.00D+00 EMaxC= 1.00D-01 BMatC= 4.17D-08 BMatP= 4.69D-08
 IDIUse=1 WtCom= 1.00D+00 WtEn= 0.00D+00
 Coeff-Com:  0.483D+00 0.517D+00
 Coeff:      0.483D+00 0.517D+00
 Gap=     0.332 Goal=   None    Shift=    0.000
 RMSDP=2.59D-06 MaxDP=4.77D-05 DE=-1.35D-08 OVMax= 5.71D-05

 Cycle   9  Pass 1  IDiag  1:
 E= -194.346567915930     Delta-E=       -0.000000039244 Rises=F Damp=F
 DIIS: error= 2.51D-06 at cycle   3 NSaved=   3.
 NSaved= 3 IEnMin= 3 EnMin= -194.346567915930     IErMin= 3 ErrMin= 2.51D-06
 ErrMax= 2.51D-06  0.00D+00 EMaxC= 1.00D-01 BMatC= 8.79D-10 BMatP= 4.17D-08
 IDIUse=1 WtCom= 1.00D+00 WtEn= 0.00D+00
 Coeff-Com: -0.123D-01 0.115D+00 0.897D+00
 Coeff:     -0.123D-01 0.115D+00 0.897D+00
 Gap=     0.332 Goal=   None    Shift=    0.000
 RMSDP=3.72D-07 MaxDP=5.56D-06 DE=-3.92D-08 OVMax= 6.61D-06

 Cycle  10  Pass 1  IDiag  1:
 E= -194.346567916763     Delta-E=       -0.000000000833 Rises=F Damp=F
 DIIS: error= 4.32D-07 at cycle   4 NSaved=   4.
 NSaved= 4 IEnMin= 4 EnMin= -194.346567916763     IErMin= 4 ErrMin= 4.32D-07
 ErrMax= 4.32D-07  0.00D+00 EMaxC= 1.00D-01 BMatC= 2.01D-11 BMatP= 8.79D-10
 IDIUse=1 WtCom= 1.00D+00 WtEn= 0.00D+00
 Coeff-Com: -0.109D-01 0.334D-01 0.307D+00 0.671D+00
 Coeff:     -0.109D-01 0.334D-01 0.307D+00 0.671D+00
 Gap=     0.332 Goal=   None    Shift=    0.000
 RMSDP=7.21D-08 MaxDP=8.41D-07 DE=-8.33D-10 OVMax= 1.19D-06

 Cycle  11  Pass 1  IDiag  1:
 E= -194.346567916775     Delta-E=       -0.000000000013 Rises=F Damp=F
 DIIS: error= 1.19D-07 at cycle   5 NSaved=   5.
 NSaved= 5 IEnMin= 5 EnMin= -194.346567916775     IErMin= 5 ErrMin= 1.19D-07
 ErrMax= 1.19D-07  0.00D+00 EMaxC= 1.00D-01 BMatC= 2.82D-12 BMatP= 2.01D-11
 IDIUse=1 WtCom= 1.00D+00 WtEn= 0.00D+00
 Coeff-Com: -0.468D-02 0.119D-01 0.114D+00 0.339D+00 0.540D+00
 Coeff:     -0.468D-02 0.119D-01 0.114D+00 0.339D+00 0.540D+00
 Gap=     0.332 Goal=   None    Shift=    0.000
 RMSDP=1.97D-08 MaxDP=3.43D-07 DE=-1.26D-11 OVMax= 3.37D-07

 Cycle  12  Pass 1  IDiag  1:
 E= -194.346567916779     Delta-E=       -0.000000000004 Rises=F Damp=F
 DIIS: error= 3.33D-08 at cycle   6 NSaved=   6.
 NSaved= 6 IEnMin= 6 EnMin= -194.346567916779     IErMin= 6 ErrMin= 3.33D-08
 ErrMax= 3.33D-08  0.00D+00 EMaxC= 1.00D-01 BMatC= 1.40D-13 BMatP= 2.82D-12
 IDIUse=1 WtCom= 1.00D+00 WtEn= 0.00D+00
 Coeff-Com: -0.472D-03 0.429D-03 0.585D-02 0.481D-01 0.207D+00 0.739D+00
 Coeff:     -0.472D-03 0.429D-03 0.585D-02 0.481D-01 0.207D+00 0.739D+00
 Gap=     0.332 Goal=   None    Shift=    0.000
 RMSDP=5.92D-09 MaxDP=9.34D-08 DE=-3.52D-12 OVMax= 8.96D-08

 SCF Done:  E(RB3LYP) =  -194.346567917     A.U. after   12 cycles
            NFock= 12  Conv=0.59D-08     -V/T= 2.0091
 KE= 1.925902037191D+02 PE=-7.179183636590D+02 EE= 1.984090123321D+02
 Leave Link  502 at Thu Mar 19 18:24:32 2026, MaxMem=   536870912 cpu:         6.0
 (Enter C:\G09W\l601.exe)
 Copying SCF densities to generalized density rwf, IOpCl= 0 IROHF=0.

 **********************************************************************

            Population analysis using the SCF density.

 **********************************************************************

 Orbital symmetries:
       Occupied  (A) (A) (A) (A) (A) (A) (A) (A) (A) (A) (A) (A)
                 (A) (A) (A) (A) (A)
       Virtual   (A) (A) (A) (A) (A) (A) (A) (A) (A) (A) (A) (A)
                 (A) (A) (A) (A) (A) (A) (A) (A) (A) (A) (A) (A)
                 (A) (A) (A) (A) (A) (A) (A) (A) (A) (A) (A) (A)
                 (A) (A) (A) (A) (A) (A) (A) (A) (A) (A) (A) (A)
                 (A) (A) (A) (A) (A) (A) (A) (A) (A) (A) (A)
 The electronic state is 1-A.
 Alpha  occ. eigenvalues --  -19.13553 -10.22337 -10.17699 -10.16447  -1.00953
 Alpha  occ. eigenvalues --   -0.77177  -0.66832  -0.57710  -0.51096  -0.45986
 Alpha  occ. eigenvalues --   -0.41778  -0.41428  -0.36519  -0.34485  -0.33489
 Alpha  occ. eigenvalues --   -0.31473  -0.25892
 Alpha virt. eigenvalues --    0.07278   0.11700   0.14753   0.15070   0.16834
 Alpha virt. eigenvalues --    0.17562   0.19216   0.20262   0.22925   0.23699
 Alpha virt. eigenvalues --    0.26878   0.52138   0.53292   0.55452   0.56697
 Alpha virt. eigenvalues --    0.59653   0.65735   0.69661   0.72511   0.80420
 Alpha virt. eigenvalues --    0.82583   0.86097   0.86762   0.88452   0.91817
 Alpha virt. eigenvalues --    0.93994   0.94420   0.97311   1.01051   1.01175
 Alpha virt. eigenvalues --    1.04891   1.21018   1.29225   1.43078   1.46248
 Alpha virt. eigenvalues --    1.55474   1.68593   1.69741   1.73804   1.76245
 Alpha virt. eigenvalues --    1.88278   1.97151   2.00404   2.07104   2.07334
 Alpha virt. eigenvalues --    2.21939   2.25122   2.31895   2.37084   2.40854
 Alpha virt. eigenvalues --    2.42000   2.51166   2.62775   2.68329   2.85432
 Alpha virt. eigenvalues --    3.73486   4.16157   4.32077   4.48300
          Condensed to atoms (all electrons):
               1          2          3          4          5          6
     1  C    5.066607   0.371175  -0.044921   0.000867   0.375942   0.374239
     2  C    0.371175   4.990237   0.386068  -0.054334  -0.037383  -0.031694
     3  C   -0.044921   0.386068   4.802230   0.246876  -0.004716   0.005008
     4  O    0.000867  -0.054334   0.246876   8.266744  -0.000444   0.000067
     5  H    0.375942  -0.037383  -0.004716  -0.000444   0.585339  -0.031550
     6  H    0.374239  -0.031694   0.005008   0.000067  -0.031550   0.583910
     7  H    0.383035  -0.033816  -0.007136   0.007867  -0.029921  -0.030710
     8  H   -0.043349   0.372581  -0.034062   0.001924   0.005560  -0.003018
     9  H   -0.038786   0.367432  -0.033462   0.002901  -0.003999  -0.003916
    10  H    0.006576  -0.040344   0.367045  -0.042040  -0.000065  -0.000157
    11  H   -0.010956  -0.039407   0.361877  -0.043557   0.006109  -0.000046
    12  H    0.000038   0.007021  -0.022654   0.233047  -0.000030   0.000004
               7          8          9         10         11         12
     1  C    0.383035  -0.043349  -0.038786   0.006576  -0.010956   0.000038
     2  C   -0.033816   0.372581   0.367432  -0.040344  -0.039407   0.007021
     3  C   -0.007136  -0.034062  -0.033462   0.367045   0.361877  -0.022654
     4  O    0.007867   0.001924   0.002901  -0.042040  -0.043557   0.233047
     5  H   -0.029921   0.005560  -0.003999  -0.000065   0.006109  -0.000030
     6  H   -0.030710  -0.003018  -0.003916  -0.000157  -0.000046   0.000004
     7  H    0.542540  -0.004109   0.005208   0.000202   0.000115  -0.000362
     8  H   -0.004109   0.590444  -0.032995  -0.006082   0.006590  -0.000098
     9  H    0.005208  -0.032995   0.606256  -0.000714  -0.000069  -0.000297
    10  H    0.000202  -0.006082  -0.000714   0.660462  -0.056453  -0.004406
    11  H    0.000115   0.006590  -0.000069  -0.056453   0.665323  -0.004615
    12  H   -0.000362  -0.000098  -0.000297  -0.004406  -0.004615   0.402503
 Mulliken charges:
               1
     1  C   -0.440468
     2  C   -0.257537
     3  C   -0.022153
     4  O   -0.619918
     5  H    0.135155
     6  H    0.137865
     7  H    0.167088
     8  H    0.146614
     9  H    0.132440
    10  H    0.115975
    11  H    0.115088
    12  H    0.389850
 Sum of Mulliken charges =   0.00000
 Mulliken charges with hydrogens summed into heavy atoms:
               1
     1  C   -0.000360
     2  C    0.021517
     3  C    0.208910
     4  O   -0.230067
 Electronic spatial extent (au):  <R**2>=            340.7440
 Charge=              0.0000 electrons
 Dipole moment (field-independent basis, Debye):
    X=             -0.7232    Y=              0.9455    Z=              0.9473  Tot=              1.5213
 Quadrupole moment (field-independent basis, Debye-Ang):
   XX=            -22.3275   YY=            -27.0984   ZZ=            -26.5380
   XY=              0.0529   XZ=             -2.0137   YZ=             -0.5186
 Traceless Quadrupole moment (field-independent basis, Debye-Ang):
   XX=              2.9938   YY=             -1.7771   ZZ=             -1.2167
   XY=              0.0529   XZ=             -2.0137   YZ=             -0.5186
 Octapole moment (field-independent basis, Debye-Ang**2):
  XXX=            -21.8057  YYY=             -2.0293  ZZZ=             -0.3007  XYY=             -2.4309
  XXY=             -2.6408  XXZ=              2.6373  XZZ=             -1.6999  YZZ=             -0.7091
  YYZ=             -0.1089  XYZ=              1.4015
 Hexadecapole moment (field-independent basis, Debye-Ang**3):
 XXXX=           -234.2313 YYYY=           -104.3750 ZZZZ=            -55.8693 XXXY=             15.4552
 XXXZ=             -7.7570 YYYX=              5.0759 YYYZ=              1.2687 ZZZX=              0.2211
 ZZZY=             -0.4338 XXYY=            -62.1303 XXZZ=            -56.3835 YYZZ=            -27.9525
 XXYZ=             -1.7612 YYXZ=             -0.0472 ZZXY=              1.3391
 N-N= 1.325725796910D+02 E-N=-7.179183662608D+02  KE= 1.925902037191D+02
 No NMR shielding tensors so no spin-rotation constants.
 Leave Link  601 at Thu Mar 19 18:24:32 2026, MaxMem=   536870912 cpu:         0.0
 (Enter C:\G09W\l701.exe)
 Compute integral first derivatives.
 ... and contract with generalized density number  0.
 Leave Link  701 at Thu Mar 19 18:24:32 2026, MaxMem=   536870912 cpu:         0.0
 (Enter C:\G09W\l702.exe)
 L702 exits ... SP integral derivatives will be done elsewhere.
 Leave Link  702 at Thu Mar 19 18:24:32 2026, MaxMem=   536870912 cpu:         0.0
 (Enter C:\G09W\l703.exe)
 Compute integral first derivatives, UseDBF=F ICtDFT=           0.
 Integral derivatives from FoFJK, PRISM(SPDF).
 Calling FoFJK, ICntrl=      2127 FMM=F ISym2X=0 I1Cent= 0 IOpClX= 0 NMat=1 NMatS=1 NMatT=0.
 FoFJK:  IHMeth= 1 ICntrl=    2127 DoSepK=F KAlg= 0 I1Cent=   0 FoldK=F
 IRaf=         0 NMat=   1 IRICut=       1 DoRegI=T DoRafI=F ISym2E= 0.
 FoFCou: FMM=F IPFlag=           0 FMFlag=      100000 FMFlg1=         800
         NFxFlg=           0 DoJE=F BraDBF=F KetDBF=F FulRan=T
         wScrn=  0.000000 ICntrl=    2127 IOpCl=  0 I1Cent=           0 NGrid=           0
         NMat0=    1 NMatS0=      1 NMatT0=    0 NMatD0=    1 NMtDS0=    0 NMtDT0=    0
 Symmetry not used in FoFCou.
 Leave Link  703 at Thu Mar 19 18:24:34 2026, MaxMem=   536870912 cpu:         1.0
 (Enter C:\G09W\l716.exe)
 Dipole        =-2.84514429D-01 3.71997605D-01 3.72701215D-01
 ***** Axes restored to original set *****
 -------------------------------------------------------------------
 Center     Atomic                   Forces (Hartrees/Bohr)
 Number     Number              X              Y              Z
 -------------------------------------------------------------------
      1        6          -0.004910126    0.002644065   -0.000691993
      2        6           0.000598091    0.004977081   -0.002796893
      3        6           0.003490431   -0.004341212   -0.004507172
      4        8          -0.000239929    0.004385695   -0.007242641
      5        1          -0.000221793    0.001783306    0.000977679
      6        1          -0.001508506    0.001388269    0.000549152
      7        1           0.001063065    0.000115856    0.000585889
      8        1           0.002814805   -0.003041892    0.000065709
      9        1           0.002279550   -0.002320023    0.000531099
     10        1           0.001531574   -0.005157031    0.005431271
     11        1          -0.000863224   -0.000473758    0.007742309
     12        1          -0.004033939    0.000039647   -0.000644409
 -------------------------------------------------------------------
 Cartesian Forces:  Max     0.007742309 RMS     0.003170534
 Leave Link  716 at Thu Mar 19 18:24:34 2026, MaxMem=   536870912 cpu:         0.0
 (Enter C:\G09W\l103.exe)

 GradGradGradGradGradGradGradGradGradGradGradGradGradGradGradGradGradGrad
 Berny optimization.
 FormGI is forming the generalized inverse of G from B-inverse, IUseBI=4.
 Internal  Forces:  Max     0.009165596 RMS     0.003068258
 Search for a local minimum.
 Step number   1 out of a maximum of   61
 All quantities printed in internal units (Hartrees-Bohrs-Radians)
 RMS Force = .30683D-02 SwitMx=.10000D-02 MixMth= 1
 Mixed Optimization -- RFO/linear search
 Second derivative matrix not updated -- first step.
 ITU=  0
     Eigenvalues ---    0.00465   0.00474   0.01423   0.03687   0.04949
     Eigenvalues ---    0.05174   0.05561   0.05695   0.05799   0.08297
     Eigenvalues ---    0.11469   0.12163   0.13785   0.16000   0.16000
     Eigenvalues ---    0.16000   0.16000   0.21949   0.22035   0.30106
     Eigenvalues ---    0.30165   0.34105   0.34182   0.34271   0.34278
     Eigenvalues ---    0.34284   0.34291   0.34299   0.42408   0.52896
 RFO step:  Lambda=-2.66909802D-03 EMin= 4.65403319D-03
 Linear search not attempted -- first point.
 Iteration  1 RMS(Cart)=  0.03286112 RMS(Int)=  0.00068158
 Iteration  2 RMS(Cart)=  0.00071717 RMS(Int)=  0.00039068
 Iteration  3 RMS(Cart)=  0.00000025 RMS(Int)=  0.00039068
 ITry= 1 IFail=0 DXMaxC= 7.71D-02 DCOld= 1.00D+10 DXMaxT= 3.00D-01 DXLimC= 3.00D+00 Rises=F
 Variable       Old X    -DE/DX   Delta X   Delta X   Delta X     New X
                                 (Linear)    (Quad)   (Total)
    R1        2.87636   0.00807   0.00000   0.02652   0.02652   2.90288
    R2        2.06864   0.00172   0.00000   0.00498   0.00498   2.07362
    R3        2.06854   0.00120   0.00000   0.00349   0.00349   2.07202
    R4        2.06829  -0.00033   0.00000  -0.00096  -0.00096   2.06733
    R5        2.87752  -0.00124   0.00000  -0.00410  -0.00410   2.87343
    R6        2.07153   0.00075   0.00000   0.00219   0.00219   2.07371
    R7        2.07024   0.00132   0.00000   0.00382   0.00382   2.07406
    R8        2.68407   0.00813   0.00000   0.01906   0.01906   2.70313
    R9        2.06841   0.00530   0.00000   0.01535   0.01535   2.08376
   R10        2.06875   0.00519   0.00000   0.01503   0.01503   2.08379
   R11        1.83751  -0.00393   0.00000  -0.00740  -0.00740   1.83011
    A1        1.93631   0.00112   0.00000   0.00492   0.00486   1.94117
    A2        1.92252   0.00255   0.00000   0.01904   0.01900   1.94151
    A3        1.94344  -0.00126   0.00000  -0.00918  -0.00918   1.93426
    A4        1.88585  -0.00158   0.00000  -0.00699  -0.00708   1.87877
    A5        1.89066  -0.00066   0.00000  -0.01030  -0.01032   1.88034
    A6        1.88321  -0.00027   0.00000   0.00203   0.00205   1.88526
    A7        1.96112   0.00311   0.00000   0.01796   0.01803   1.97915
    A8        1.89255   0.00161   0.00000   0.02622   0.02637   1.91892
    A9        1.90614   0.00079   0.00000   0.01759   0.01773   1.92387
   A10        1.91264  -0.00305   0.00000  -0.02622  -0.02668   1.88596
   A11        1.90890  -0.00247   0.00000  -0.02331  -0.02368   1.88522
   A12        1.88073  -0.00008   0.00000  -0.01301  -0.01389   1.86684
   A13        1.91864  -0.00917   0.00000  -0.03564  -0.03546   1.88317
   A14        1.92004   0.00052   0.00000  -0.00488  -0.00468   1.91535
   A15        1.93711  -0.00232   0.00000  -0.03486  -0.03489   1.90222
   A16        1.89046   0.00628   0.00000   0.05583   0.05558   1.94604
   A17        1.89912   0.00647   0.00000   0.04173   0.04077   1.93989
   A18        1.89764  -0.00142   0.00000  -0.01925  -0.02070   1.87694
   A19        1.86867   0.00195   0.00000   0.01200   0.01200   1.88067
    D1       -1.02882   0.00024   0.00000  -0.00873  -0.00867  -1.03748
    D2        3.13760   0.00098   0.00000  -0.00520  -0.00524   3.13237
    D3        1.09261  -0.00027   0.00000  -0.01414  -0.01410   1.07851
    D4       -3.11615  -0.00015   0.00000  -0.01551  -0.01550  -3.13165
    D5        1.05027   0.00058   0.00000  -0.01198  -0.01207   1.03820
    D6       -0.99472  -0.00067   0.00000  -0.02093  -0.02093  -1.01565
    D7        1.07843  -0.00069   0.00000  -0.02467  -0.02462   1.05381
    D8       -1.03833   0.00005   0.00000  -0.02115  -0.02120  -1.05953
    D9       -3.08333  -0.00120   0.00000  -0.03009  -0.03006  -3.11339
   D10       -1.11346   0.00052   0.00000   0.02699   0.02680  -1.08666
   D11        3.08938  -0.00186   0.00000  -0.01664  -0.01646   3.07292
   D12        0.98843   0.00108   0.00000   0.03322   0.03330   1.02173
   D13        0.99176   0.00251   0.00000   0.05390   0.05336   1.04512
   D14       -1.08858   0.00013   0.00000   0.01027   0.01010  -1.07849
   D15        3.09365   0.00307   0.00000   0.06012   0.05986  -3.12968
   D16        3.04988  -0.00083   0.00000   0.00901   0.00909   3.05897
   D17        0.96953  -0.00321   0.00000  -0.03462  -0.03417   0.93536
   D18       -1.13142  -0.00026   0.00000   0.01523   0.01559  -1.11583
   D19       -3.13647  -0.00132   0.00000  -0.02422  -0.02435   3.12237
   D20       -1.03811  -0.00229   0.00000  -0.01715  -0.01822  -1.05633
   D21        1.02202   0.00315   0.00000   0.01447   0.01568   1.03770
         Item               Value     Threshold  Converged?
 Maximum Force            0.009166     0.000450     NO 
 RMS     Force            0.003068     0.000300     NO 
 Maximum Displacement     0.077136     0.001800     NO 
 RMS     Displacement     0.032832     0.001200     NO 
 Predicted change in Energy=-1.367582D-03
 Lowest energy point so far.  Saving SCF results.
 GradGradGradGradGradGradGradGradGradGradGradGradGradGradGradGradGradGrad

 Leave Link  103 at Thu Mar 19 18:24:35 2026, MaxMem=   536870912 cpu:         0.0
 (Enter C:\G09W\l202.exe)
                          Input orientation:                          
 ---------------------------------------------------------------------
 Center     Atomic      Atomic             Coordinates (Angstroms)
 Number     Number       Type             X           Y           Z
 ---------------------------------------------------------------------
      1          6           0       -1.282082    0.659402    0.238168
      2          6           0       -0.432437   -0.619529    0.191798
      3          6           0        1.057433   -0.349911    0.051530
      4          8           0        1.267093    0.323241   -1.193082
      5          1           0       -0.992180    1.298474    1.081756
      6          1           0       -2.347337    0.424789    0.349649
      7          1           0       -1.158156    1.242141   -0.679362
      8          1           0       -0.745603   -1.246597   -0.652546
      9          1           0       -0.586059   -1.210493    1.103810
     10          1           0        1.613797   -1.300933    0.095353
     11          1           0        1.391370    0.269886    0.900218
     12          1           0        2.214159    0.509531   -1.272204
 ---------------------------------------------------------------------
                    Distance matrix (angstroms):
                    1          2          3          4          5
     1  C    0.000000
     2  C    1.536136   0.000000
     3  C    2.554776   1.520553   0.000000
     4  O    2.942749   2.386443   1.430437   0.000000
     5  H    1.097314   2.187253   2.824793   3.351161   0.000000
     6  H    1.096467   2.186861   3.504497   3.931213   1.770807
     7  H    1.093985   2.179772   2.824477   2.643883   1.769820
     8  H    2.171177   1.097362   2.133239   2.609122   3.089658
     9  H    2.174924   1.097545   2.132829   3.325992   2.541719
    10  H    3.499918   2.158862   1.102680   2.101953   3.810646
    11  H    2.781614   2.149230   1.102694   2.097664   2.602356
    12  H    3.811480   3.228396   1.956764   0.968451   4.055140
                    6          7          8          9         10
     6  H    0.000000
     7  H    1.772310   0.000000
     8  H    2.522593   2.522842   0.000000
     9  H    2.518930   3.085841   1.763957   0.000000
    10  H    4.328206   3.840720   2.475697   2.421679   0.000000
    11  H    3.782202   3.152846   3.045890   2.478547   1.778975
    12  H    4.841986   3.501526   3.496877   4.055261   2.347003
                   11         12
    11  H    0.000000
    12  H    2.335342   0.000000
 Stoichiometry    C3H8O
 Framework group  C1[X(C3H8O)]
 Deg. of freedom    30
 Full point group                 C1      NOp   1
 RotChk:  IX=0 Diff= 2.54D-02
 Largest Abelian subgroup         C1      NOp   1
 Largest concise Abelian subgroup C1      NOp   1
                         Standard orientation:                         
 ---------------------------------------------------------------------
 Center     Atomic      Atomic             Coordinates (Angstroms)
 Number     Number       Type             X           Y           Z
 ---------------------------------------------------------------------
      1          6           0        1.544158   -0.513590    0.129025
      2          6           0        0.628054    0.645903   -0.290550
      3          6           0       -0.773850    0.548366    0.290167
      4          8           0       -1.375618   -0.648048   -0.212446
      5          1           0        1.652663   -0.559284    1.220005
      6          1           0        2.546961   -0.402935   -0.300372
      7          1           0        1.136579   -1.472025   -0.205766
      8          1           0        0.541792    0.678002   -1.384045
      9          1           0        1.060184    1.604240    0.024819
     10          1           0       -1.356010    1.441996    0.010134
     11          1           0       -0.705753    0.527475    1.390558
     12          1           0       -2.261635   -0.717157    0.172385
 ---------------------------------------------------------------------
 Rotational constants (GHZ):     14.2454004      5.1173234      4.3070581
 Leave Link  202 at Thu Mar 19 18:24:35 2026, MaxMem=   536870912 cpu:         0.0
 (Enter C:\G09W\l301.exe)
 Standard basis: 6-31G(d) (6D, 7F)
 Ernie: Thresh=  0.10000D-02 Tol=  0.10000D-05 Strict=F.
 There are    76 symmetry adapted cartesian basis functions of A   symmetry.
 There are    76 symmetry adapted basis functions of A   symmetry.
    76 basis functions,   144 primitive gaussians,    76 cartesian basis functions
    17 alpha electrons       17 beta electrons
       nuclear repulsion energy       132.2740108132 Hartrees.
 IExCor=  402 DFT=T Ex+Corr=B3LYP ExCW=0 ScaHFX=  0.200000
 ScaDFX=  0.800000  0.720000  1.000000  0.810000 ScalE2=  1.000000  1.000000
 IRadAn=      0 IRanWt=     -1 IRanGd=            0 ICorTp=0 IEmpDi=  4
 NAtoms=   12 NActive=   12 NUniq=   12 SFac= 1.00D+00 NAtFMM=   60 NAOKFM=F Big=F
 Integral buffers will be    131072 words long.
 Raffenetti 2 integral format.
 Two-electron integral symmetry is turned on.
 Leave Link  301 at Thu Mar 19 18:24:36 2026, MaxMem=   536870912 cpu:         0.0
 (Enter C:\G09W\l302.exe)
 NPDir=0 NMtPBC=     1 NCelOv=     1 NCel=       1 NClECP=     1 NCelD=      1
         NCelK=      1 NCelE2=     1 NClLst=     1 CellRange=     0.0.
 One-electron integrals computed using PRISM.
 NBasis=    76 RedAO= T EigKep=  5.30D-03  NBF=    76
 NBsUse=    76 1.00D-06 EigRej= -1.00D+00 NBFU=    76
 Precomputing XC quadrature grid using
 IXCGrd= 4 IRadAn=           0 IRanWt=          -1 IRanGd=           0 AccXCQ= 0.00D+00.
 Generated NRdTot=       0 NPtTot=           0 NUsed=           0 NTot=          32
 NSgBfM=    76    76    76    76    76 MxSgAt=    12 MxSgA2=    12.
 Leave Link  302 at Thu Mar 19 18:24:36 2026, MaxMem=   536870912 cpu:         0.0
 (Enter C:\G09W\l303.exe)
 DipDrv:  MaxL=1.
 Leave Link  303 at Thu Mar 19 18:24:36 2026, MaxMem=   536870912 cpu:         0.0
 (Enter C:\G09W\l401.exe)
 Initial guess from the checkpoint file:  "1-propanol_rdkit.chk"
 B after Tr=     0.000000    0.000000    0.000000
         Rot=    0.999959    0.006533   -0.001371   -0.006172 Ang=   1.04 deg.
 Guess basis will be translated and rotated to current coordinates.
 JPrj=2 DoOrth=T DoCkMO=T.
 Generating alternative initial guess.
 ExpMin= 1.61D-01 ExpMax= 5.48D+03 ExpMxC= 8.25D+02 IAcc=1 IRadAn=         1 AccDes= 0.00D+00
 Harris functional with IExCor=  402 and IRadAn=       1 diagonalized for initial guess.
 HarFok:  IExCor=  402 AccDes= 0.00D+00 IRadAn=         1 IDoV= 1 UseB2=F ITyADJ=14
 ICtDFT=  3500011 ScaDFX=  1.000000  1.000000  1.000000  1.000000
 FoFCou: FMM=F IPFlag=           0 FMFlag=      100000 FMFlg1=           0
         NFxFlg=           0 DoJE=T BraDBF=F KetDBF=T FulRan=T
         wScrn=  0.000000 ICntrl=     500 IOpCl=  0 I1Cent=   200000004 NGrid=           0
         NMat0=    1 NMatS0=      1 NMatT0=    0 NMatD0=    1 NMtDS0=    0 NMtDT0=    0
 Petite list used in FoFCou.
 Harris En= -194.399322319983    
 Leave Link  401 at Thu Mar 19 18:24:37 2026, MaxMem=   536870912 cpu:         1.0
 (Enter C:\G09W\l502.exe)
 Closed shell SCF:
 Using DIIS extrapolation, IDIIS=  1040.
 Integral symmetry usage will be decided dynamically.
 Keep R1 ints in memory in canonical form, NReq=5217425.
 IVT=       36922 IEndB=       36922 NGot=   536870912 MDV=   532551790
 LenX=   532551790 LenY=   532545573
 Requested convergence on RMS density matrix=1.00D-08 within 128 cycles.
 Requested convergence on MAX density matrix=1.00D-06.
 Requested convergence on             energy=1.00D-06.
 No special actions if energy rises.
 FoFCou: FMM=F IPFlag=           0 FMFlag=           0 FMFlg1=           0
         NFxFlg=           0 DoJE=F BraDBF=F KetDBF=F FulRan=T
         wScrn=  0.000000 ICntrl=     600 IOpCl=  0 I1Cent=           0 NGrid=           0
         NMat0=    1 NMatS0=   2926 NMatT0=    0 NMatD0=    1 NMtDS0=    0 NMtDT0=    0
 Symmetry not used in FoFCou.
 Integral accuracy reduced to 1.0D-05 until final iterations.

 Cycle   1  Pass 0  IDiag  1:
 E= -194.346723326541    
 DIIS: error= 1.33D-03 at cycle   1 NSaved=   1.
 NSaved= 1 IEnMin= 1 EnMin= -194.346723326541     IErMin= 1 ErrMin= 1.33D-03
 ErrMax= 1.33D-03  0.00D+00 EMaxC= 1.00D-01 BMatC= 5.45D-04 BMatP= 5.45D-04
 IDIUse=3 WtCom= 9.87D-01 WtEn= 1.33D-02
 Coeff-Com:  0.100D+01
 Coeff-En:   0.100D+01
 Coeff:      0.100D+01
 Gap=     1.755 Goal=   None    Shift=    0.000
 GapD=    1.755 DampG=2.000 DampE=1.000 DampFc=2.0000 IDamp=-1.
 RMSDP=4.83D-04 MaxDP=6.05D-03              OVMax= 8.22D-03

 Cycle   2  Pass 0  IDiag  1:
 E= -194.347525816470     Delta-E=       -0.000802489929 Rises=F Damp=F
 DIIS: error= 5.33D-04 at cycle   2 NSaved=   2.
 NSaved= 2 IEnMin= 2 EnMin= -194.347525816470     IErMin= 2 ErrMin= 5.33D-04
 ErrMax= 5.33D-04  0.00D+00 EMaxC= 1.00D-01 BMatC= 4.36D-05 BMatP= 5.45D-04
 IDIUse=3 WtCom= 9.95D-01 WtEn= 5.33D-03
 Coeff-Com:  0.103D+00 0.897D+00
 Coeff-En:   0.000D+00 0.100D+01
 Coeff:      0.102D+00 0.898D+00
 Gap=     0.337 Goal=   None    Shift=    0.000
 RMSDP=1.39D-04 MaxDP=2.41D-03 DE=-8.02D-04 OVMax= 2.48D-03

 Cycle   3  Pass 0  IDiag  1:
 E= -194.347532021344     Delta-E=       -0.000006204874 Rises=F Damp=F
 DIIS: error= 5.25D-04 at cycle   3 NSaved=   3.
 NSaved= 3 IEnMin= 3 EnMin= -194.347532021344     IErMin= 3 ErrMin= 5.25D-04
 ErrMax= 5.25D-04  0.00D+00 EMaxC= 1.00D-01 BMatC= 4.43D-05 BMatP= 4.36D-05
 IDIUse=3 WtCom= 9.95D-01 WtEn= 5.25D-03
 Coeff-Com: -0.157D-01 0.504D+00 0.512D+00
 Coeff-En:   0.000D+00 0.459D+00 0.541D+00
 Coeff:     -0.156D-01 0.504D+00 0.512D+00
 Gap=     0.338 Goal=   None    Shift=    0.000
 RMSDP=7.43D-05 MaxDP=1.27D-03 DE=-6.20D-06 OVMax= 1.27D-03

 Cycle   4  Pass 0  IDiag  1:
 E= -194.347567178393     Delta-E=       -0.000035157049 Rises=F Damp=F
 DIIS: error= 1.14D-04 at cycle   4 NSaved=   4.
 NSaved= 4 IEnMin= 4 EnMin= -194.347567178393     IErMin= 4 ErrMin= 1.14D-04
 ErrMax= 1.14D-04  0.00D+00 EMaxC= 1.00D-01 BMatC= 1.40D-06 BMatP= 4.36D-05
 IDIUse=3 WtCom= 9.99D-01 WtEn= 1.14D-03
 Coeff-Com: -0.148D-01 0.157D+00 0.224D+00 0.634D+00
 Coeff-En:   0.000D+00 0.000D+00 0.000D+00 0.100D+01
 Coeff:     -0.148D-01 0.157D+00 0.224D+00 0.635D+00
 Gap=     0.337 Goal=   None    Shift=    0.000
 RMSDP=1.60D-05 MaxDP=2.78D-04 DE=-3.52D-05 OVMax= 2.61D-04

 Cycle   5  Pass 0  IDiag  1:
 E= -194.347568163432     Delta-E=       -0.000000985039 Rises=F Damp=F
 DIIS: error= 3.61D-05 at cycle   5 NSaved=   5.
 NSaved= 5 IEnMin= 5 EnMin= -194.347568163432     IErMin= 5 ErrMin= 3.61D-05
 ErrMax= 3.61D-05  0.00D+00 EMaxC= 1.00D-01 BMatC= 1.19D-07 BMatP= 1.40D-06
 IDIUse=1 WtCom= 1.00D+00 WtEn= 0.00D+00
 Coeff-Com: -0.665D-02 0.559D-01 0.886D-01 0.321D+00 0.541D+00
 Coeff:     -0.665D-02 0.559D-01 0.886D-01 0.321D+00 0.541D+00
 Gap=     0.337 Goal=   None    Shift=    0.000
 RMSDP=4.70D-06 MaxDP=6.47D-05 DE=-9.85D-07 OVMax= 7.09D-05

 Initial convergence to 1.0D-05 achieved.  Increase integral accuracy.
 Cycle   6  Pass 1  IDiag  1:
 E= -194.347619255179     Delta-E=       -0.000051091747 Rises=F Damp=F
 DIIS: error= 1.18D-05 at cycle   1 NSaved=   1.
 NSaved= 1 IEnMin= 1 EnMin= -194.347619255179     IErMin= 1 ErrMin= 1.18D-05
 ErrMax= 1.18D-05  0.00D+00 EMaxC= 1.00D-01 BMatC= 1.98D-08 BMatP= 1.98D-08
 IDIUse=1 WtCom= 1.00D+00 WtEn= 0.00D+00
 Coeff-Com:  0.100D+01
 Coeff:      0.100D+01
 Gap=     0.337 Goal=   None    Shift=    0.000
 RMSDP=4.70D-06 MaxDP=6.47D-05 DE=-5.11D-05 OVMax= 5.41D-05

 Cycle   7  Pass 1  IDiag  1:
 E= -194.347619279820     Delta-E=       -0.000000024641 Rises=F Damp=F
 DIIS: error= 4.61D-06 at cycle   2 NSaved=   2.
 NSaved= 2 IEnMin= 2 EnMin= -194.347619279820     IErMin= 2 ErrMin= 4.61D-06
 ErrMax= 4.61D-06  0.00D+00 EMaxC= 1.00D-01 BMatC= 2.73D-09 BMatP= 1.98D-08
 IDIUse=1 WtCom= 1.00D+00 WtEn= 0.00D+00
 Coeff-Com:  0.173D+00 0.827D+00
 Coeff:      0.173D+00 0.827D+00
 Gap=     0.337 Goal=   None    Shift=    0.000
 RMSDP=1.20D-06 MaxDP=1.57D-05 DE=-2.46D-08 OVMax= 1.93D-05

 Cycle   8  Pass 1  IDiag  1:
 E= -194.347619280834     Delta-E=       -0.000000001014 Rises=F Damp=F
 DIIS: error= 3.72D-06 at cycle   3 NSaved=   3.
 NSaved= 3 IEnMin= 3 EnMin= -194.347619280834     IErMin= 3 ErrMin= 3.72D-06
 ErrMax= 3.72D-06  0.00D+00 EMaxC= 1.00D-01 BMatC= 1.78D-09 BMatP= 2.73D-09
 IDIUse=1 WtCom= 1.00D+00 WtEn= 0.00D+00
 Coeff-Com: -0.240D-01 0.445D+00 0.579D+00
 Coeff:     -0.240D-01 0.445D+00 0.579D+00
 Gap=     0.337 Goal=   None    Shift=    0.000
 RMSDP=5.50D-07 MaxDP=6.49D-06 DE=-1.01D-09 OVMax= 8.82D-06

 Cycle   9  Pass 1  IDiag  1:
 E= -194.347619282579     Delta-E=       -0.000000001746 Rises=F Damp=F
 DIIS: error= 3.53D-07 at cycle   4 NSaved=   4.
 NSaved= 4 IEnMin= 4 EnMin= -194.347619282579     IErMin= 4 ErrMin= 3.53D-07
 ErrMax= 3.53D-07  0.00D+00 EMaxC= 1.00D-01 BMatC= 1.16D-11 BMatP= 1.78D-09
 IDIUse=1 WtCom= 1.00D+00 WtEn= 0.00D+00
 Coeff-Com: -0.103D-01 0.134D+00 0.198D+00 0.678D+00
 Coeff:     -0.103D-01 0.134D+00 0.198D+00 0.678D+00
 Gap=     0.337 Goal=   None    Shift=    0.000
 RMSDP=6.32D-08 MaxDP=6.04D-07 DE=-1.75D-09 OVMax= 9.34D-07

 Cycle  10  Pass 1  IDiag  1:
 E= -194.347619282590     Delta-E=       -0.000000000011 Rises=F Damp=F
 DIIS: error= 1.39D-07 at cycle   5 NSaved=   5.
 NSaved= 5 IEnMin= 5 EnMin= -194.347619282590     IErMin= 5 ErrMin= 1.39D-07
 ErrMax= 1.39D-07  0.00D+00 EMaxC= 1.00D-01 BMatC= 2.19D-12 BMatP= 1.16D-11
 IDIUse=1 WtCom= 1.00D+00 WtEn= 0.00D+00
 Coeff-Com: -0.394D-02 0.474D-01 0.739D-01 0.349D+00 0.534D+00
 Coeff:     -0.394D-02 0.474D-01 0.739D-01 0.349D+00 0.534D+00
 Gap=     0.337 Goal=   None    Shift=    0.000
 RMSDP=1.76D-08 MaxDP=3.76D-07 DE=-1.09D-11 OVMax= 3.09D-07

 Cycle  11  Pass 1  IDiag  1:
 E= -194.347619282591     Delta-E=       -0.000000000001 Rises=F Damp=F
 DIIS: error= 4.50D-08 at cycle   6 NSaved=   6.
 NSaved= 6 IEnMin= 6 EnMin= -194.347619282591     IErMin= 6 ErrMin= 4.50D-08
 ErrMax= 4.50D-08  0.00D+00 EMaxC= 1.00D-01 BMatC= 1.61D-13 BMatP= 2.19D-12
 IDIUse=1 WtCom= 1.00D+00 WtEn= 0.00D+00
 Coeff-Com: -0.214D-03-0.125D-02 0.622D-03 0.461D-01 0.232D+00 0.723D+00
 Coeff:     -0.214D-03-0.125D-02 0.622D-03 0.461D-01 0.232D+00 0.723D+00
 Gap=     0.337 Goal=   None    Shift=    0.000
 RMSDP=4.66D-09 MaxDP=8.86D-08 DE=-7.96D-13 OVMax= 7.22D-08

 SCF Done:  E(RB3LYP) =  -194.347619283     A.U. after   11 cycles
            NFock= 11  Conv=0.47D-08     -V/T= 2.0095
 KE= 1.925188340847D+02 PE=-7.172692734608D+02 EE= 1.981288092803D+02
 Leave Link  502 at Thu Mar 19 18:24:42 2026, MaxMem=   536870912 cpu:         5.0
 (Enter C:\G09W\l701.exe)
 Compute integral first derivatives.
 ... and contract with generalized density number  0.
 Leave Link  701 at Thu Mar 19 18:24:43 2026, MaxMem=   536870912 cpu:         0.0
 (Enter C:\G09W\l702.exe)
 L702 exits ... SP integral derivatives will be done elsewhere.
 Leave Link  702 at Thu Mar 19 18:24:43 2026, MaxMem=   536870912 cpu:         0.0
 (Enter C:\G09W\l703.exe)
 Compute integral first derivatives, UseDBF=F ICtDFT=           0.
 Integral derivatives from FoFJK, PRISM(SPDF).
 Calling FoFJK, ICntrl=      2127 FMM=F ISym2X=0 I1Cent= 0 IOpClX= 0 NMat=1 NMatS=1 NMatT=0.
 FoFJK:  IHMeth= 1 ICntrl=    2127 DoSepK=F KAlg= 0 I1Cent=   0 FoldK=F
 IRaf=         0 NMat=   1 IRICut=       1 DoRegI=T DoRafI=F ISym2E= 0.
 FoFCou: FMM=F IPFlag=           0 FMFlag=      100000 FMFlg1=         800
         NFxFlg=           0 DoJE=F BraDBF=F KetDBF=F FulRan=T
         wScrn=  0.000000 ICntrl=    2127 IOpCl=  0 I1Cent=           0 NGrid=           0
         NMat0=    1 NMatS0=      1 NMatT0=    0 NMatD0=    1 NMtDS0=    0 NMtDT0=    0
 Symmetry not used in FoFCou.
 Leave Link  703 at Thu Mar 19 18:24:44 2026, MaxMem=   536870912 cpu:         1.0
 (Enter C:\G09W\l716.exe)
 Dipole        =-3.13588360D-01 3.51786151D-01 3.66946138D-01
 ***** Axes restored to original set *****
 -------------------------------------------------------------------
 Center     Atomic                   Forces (Hartrees/Bohr)
 Number     Number              X              Y              Z
 -------------------------------------------------------------------
      1        6           0.000203000   -0.001293890   -0.000448239
      2        6          -0.002653809    0.001064604   -0.000388552
      3        6          -0.000858576    0.002484689   -0.001493712
      4        8           0.000818130   -0.002381037    0.003031795
      5        1           0.000280888   -0.000299748    0.000240599
      6        1           0.000499236   -0.000389300    0.000061821
      7        1           0.000497253   -0.000250303    0.000047180
      8        1          -0.000707930   -0.000171352    0.000130173
      9        1          -0.000410689   -0.000298513    0.000425156
     10        1           0.000335831    0.000625687   -0.001076949
     11        1           0.001573782    0.000516808   -0.000332108
     12        1           0.000422883    0.000392356   -0.000197165
 -------------------------------------------------------------------
 Cartesian Forces:  Max     0.003031795 RMS     0.001076712
 Leave Link  716 at Thu Mar 19 18:24:44 2026, MaxMem=   536870912 cpu:         0.0
 (Enter C:\G09W\l103.exe)

 GradGradGradGradGradGradGradGradGradGradGradGradGradGradGradGradGradGrad
 Berny optimization.
 Using GEDIIS/GDIIS optimizer.
 FormGI is forming the generalized inverse of G from B-inverse, IUseBI=4.
 Internal  Forces:  Max     0.003224055 RMS     0.000894279
 Search for a local minimum.
 Step number   2 out of a maximum of   61
 All quantities printed in internal units (Hartrees-Bohrs-Radians)
 RMS Force = .89428D-03 SwitMx=.10000D-02 MixMth= 2
 Mixed Optimization -- En-DIIS/RFO-DIIS
 Update second derivatives using D2CorX and points    1    2
 DE= -1.05D-03 DEPred=-1.37D-03 R= 7.69D-01
 TightC=F SS=  1.41D+00  RLast= 1.65D-01 DXNew= 5.0454D-01 4.9557D-01
 Trust test= 7.69D-01 RLast= 1.65D-01 DXMaxT set to 4.96D-01
 ITU=  1  0
 Use linear search instead of GDIIS.
     Eigenvalues ---    0.00468   0.00473   0.01420   0.03564   0.04854
     Eigenvalues ---    0.05457   0.05560   0.05578   0.06070   0.08467
     Eigenvalues ---    0.11924   0.12318   0.13713   0.15845   0.16000
     Eigenvalues ---    0.16000   0.16168   0.21931   0.22780   0.29906
     Eigenvalues ---    0.31880   0.33749   0.34112   0.34214   0.34277
     Eigenvalues ---    0.34285   0.34298   0.34475   0.44381   0.52958
 RFO step:  Lambda=-6.60590089D-05 EMin= 4.67886922D-03
 Quartic linear search produced a step of -0.17218.
 Iteration  1 RMS(Cart)=  0.00789632 RMS(Int)=  0.00006415
 Iteration  2 RMS(Cart)=  0.00003733 RMS(Int)=  0.00005400
 Iteration  3 RMS(Cart)=  0.00000000 RMS(Int)=  0.00005400
 ITry= 1 IFail=0 DXMaxC= 1.81D-02 DCOld= 1.00D+10 DXMaxT= 4.96D-01 DXLimC= 3.00D+00 Rises=F
 Variable       Old X    -DE/DX   Delta X   Delta X   Delta X     New X
                                 (Linear)    (Quad)   (Total)
    R1        2.90288  -0.00267  -0.00457  -0.00212  -0.00669   2.89619
    R2        2.07362   0.00009  -0.00086   0.00119   0.00033   2.07396
    R3        2.07202  -0.00040  -0.00060  -0.00028  -0.00088   2.07115
    R4        2.06733  -0.00012   0.00017  -0.00047  -0.00030   2.06703
    R5        2.87343   0.00254   0.00071   0.00617   0.00687   2.88030
    R6        2.07371   0.00020  -0.00038   0.00091   0.00054   2.07425
    R7        2.07406   0.00057  -0.00066   0.00213   0.00147   2.07553
    R8        2.70313  -0.00322  -0.00328  -0.00255  -0.00583   2.69731
    R9        2.08376  -0.00041  -0.00264   0.00202  -0.00062   2.08314
   R10        2.08379   0.00051  -0.00259   0.00418   0.00159   2.08538
   R11        1.83011   0.00051   0.00127  -0.00066   0.00061   1.83072
    A1        1.94117  -0.00050  -0.00084  -0.00212  -0.00295   1.93822
    A2        1.94151  -0.00045  -0.00327   0.00164  -0.00162   1.93989
    A3        1.93426  -0.00043   0.00158  -0.00377  -0.00220   1.93206
    A4        1.87877   0.00044   0.00122   0.00038   0.00162   1.88038
    A5        1.88034   0.00043   0.00178  -0.00032   0.00146   1.88179
    A6        1.88526   0.00059  -0.00035   0.00442   0.00406   1.88932
    A7        1.97915  -0.00056  -0.00310   0.00167  -0.00145   1.97770
    A8        1.91892  -0.00013  -0.00454   0.00349  -0.00108   1.91784
    A9        1.92387  -0.00003  -0.00305   0.00135  -0.00173   1.92214
   A10        1.88596   0.00059   0.00459  -0.00021   0.00446   1.89041
   A11        1.88522   0.00037   0.00408  -0.00224   0.00190   1.88712
   A12        1.86684  -0.00021   0.00239  -0.00455  -0.00201   1.86483
   A13        1.88317   0.00186   0.00611  -0.00014   0.00593   1.88910
   A14        1.91535   0.00000   0.00081  -0.00025   0.00053   1.91588
   A15        1.90222   0.00122   0.00601   0.00547   0.01146   1.91368
   A16        1.94604  -0.00155  -0.00957  -0.00236  -0.01189   1.93414
   A17        1.93989  -0.00131  -0.00702   0.00284  -0.00409   1.93580
   A18        1.87694  -0.00018   0.00356  -0.00534  -0.00158   1.87536
   A19        1.88067   0.00050  -0.00207   0.00496   0.00289   1.88357
    D1       -1.03748   0.00001   0.00149  -0.01094  -0.00946  -1.04695
    D2        3.13237  -0.00028   0.00090  -0.01433  -0.01343   3.11894
    D3        1.07851   0.00008   0.00243  -0.01169  -0.00927   1.06923
    D4       -3.13165   0.00010   0.00267  -0.01111  -0.00844  -3.14009
    D5        1.03820  -0.00019   0.00208  -0.01450  -0.01240   1.02580
    D6       -1.01565   0.00016   0.00360  -0.01186  -0.00825  -1.02391
    D7        1.05381  -0.00006   0.00424  -0.01526  -0.01102   1.04278
    D8       -1.05953  -0.00035   0.00365  -0.01865  -0.01499  -1.07451
    D9       -3.11339   0.00000   0.00518  -0.01601  -0.01083  -3.12422
   D10       -1.08666  -0.00036  -0.00461  -0.00450  -0.00910  -1.09575
   D11        3.07292   0.00037   0.00283  -0.00138   0.00143   3.07436
   D12        1.02173  -0.00012  -0.00573   0.00202  -0.00371   1.01802
   D13        1.04512  -0.00046  -0.00919   0.00088  -0.00823   1.03689
   D14       -1.07849   0.00027  -0.00174   0.00400   0.00230  -1.07619
   D15       -3.12968  -0.00023  -0.01031   0.00740  -0.00285  -3.13252
   D16        3.05897  -0.00021  -0.00157  -0.00570  -0.00730   3.05167
   D17        0.93536   0.00052   0.00588  -0.00259   0.00323   0.93859
   D18       -1.11583   0.00002  -0.00269   0.00082  -0.00192  -1.11774
   D19        3.12237   0.00043   0.00419  -0.00500  -0.00079   3.12158
   D20       -1.05633   0.00069   0.00314  -0.00684  -0.00356  -1.05989
   D21        1.03770  -0.00146  -0.00270  -0.01328  -0.01614   1.02155
         Item               Value     Threshold  Converged?
 Maximum Force            0.003224     0.000450     NO 
 RMS     Force            0.000894     0.000300     NO 
 Maximum Displacement     0.018108     0.001800     NO 
 RMS     Displacement     0.007890     0.001200     NO 
 Predicted change in Energy=-8.052304D-05
 Lowest energy point so far.  Saving SCF results.
 GradGradGradGradGradGradGradGradGradGradGradGradGradGradGradGradGradGrad

 Leave Link  103 at Thu Mar 19 18:24:45 2026, MaxMem=   536870912 cpu:         0.0
 (Enter C:\G09W\l202.exe)
                          Input orientation:                          
 ---------------------------------------------------------------------
 Center     Atomic      Atomic             Coordinates (Angstroms)
 Number     Number       Type             X           Y           Z
 ---------------------------------------------------------------------
      1          6           0       -1.284644    0.657632    0.239497
      2          6           0       -0.436578   -0.618067    0.192258
      3          6           0        1.056276   -0.345108    0.050738
      4          8           0        1.273201    0.316924   -1.195053
      5          1           0       -0.998577    1.289942    1.089693
      6          1           0       -2.349734    0.420781    0.342985
      7          1           0       -1.151405    1.244511   -0.673890
      8          1           0       -0.753712   -1.246207   -0.650175
      9          1           0       -0.590880   -1.208581    1.105385
     10          1           0        1.614563   -1.294728    0.092186
     11          1           0        1.400953    0.278461    0.893444
     12          1           0        2.220536    0.504440   -1.271981
 ---------------------------------------------------------------------
                    Distance matrix (angstroms):
                    1          2          3          4          5
     1  C    0.000000
     2  C    1.532597   0.000000
     3  C    2.553630   1.524188   0.000000
     4  O    2.952386   2.392109   1.427352   0.000000
     5  H    1.097490   2.182139   2.824046   3.365680   0.000000
     6  H    1.096004   2.182220   3.503270   3.937258   1.771621
     7  H    1.093826   2.174945   2.815285   2.647781   1.770776
     8  H    2.167489   1.097647   2.139934   2.616991   3.085312
     9  H    2.171133   1.098324   2.137988   3.330762   2.531616
    10  H    3.498401   2.162190   1.102352   2.090677   3.808417
    11  H    2.789954   2.161468   1.103536   2.092753   2.611388
    12  H    3.820251   3.234853   1.956225   0.968775   4.069055
                    6          7          8          9         10
     6  H    0.000000
     7  H    1.774417   0.000000
     8  H    2.512469   2.522379   0.000000
     9  H    2.515877   3.081828   1.763497   0.000000
    10  H    4.326837   3.832125   2.482375   2.428575   0.000000
    11  H    3.793535   3.147112   3.057769   2.494716   1.778360
    12  H    4.847935   3.503627   3.506787   4.060834   2.337768
                   11         12
    11  H    0.000000
    12  H    2.326337   0.000000
 Stoichiometry    C3H8O
 Framework group  C1[X(C3H8O)]
 Deg. of freedom    30
 Full point group                 C1      NOp   1
 RotChk:  IX=0 Diff= 2.26D-03
 Largest Abelian subgroup         C1      NOp   1
 Largest concise Abelian subgroup C1      NOp   1
                         Standard orientation:                         
 ---------------------------------------------------------------------
 Center     Atomic      Atomic             Coordinates (Angstroms)
 Number     Number       Type             X           Y           Z
 ---------------------------------------------------------------------
      1          6           0        1.546294   -0.514480    0.129208
      2          6           0        0.633479    0.642870   -0.290512
      3          6           0       -0.771635    0.544659    0.291864
      4          8           0       -1.383247   -0.641364   -0.214708
      5          1           0        1.659907   -0.551276    1.220181
      6          1           0        2.545994   -0.407888   -0.307212
      7          1           0        1.130674   -1.472397   -0.196539
      8          1           0        0.551801    0.676041   -1.384613
      9          1           0        1.068090    1.600791    0.025425
     10          1           0       -1.354905    1.436900    0.011005
     11          1           0       -0.715646    0.519237    1.393686
     12          1           0       -2.268769   -0.708787    0.172370
 ---------------------------------------------------------------------
 Rotational constants (GHZ):     14.3404760      5.0879346      4.2975402
 Leave Link  202 at Thu Mar 19 18:24:45 2026, MaxMem=   536870912 cpu:         0.0
 (Enter C:\G09W\l301.exe)
 Standard basis: 6-31G(d) (6D, 7F)
 Ernie: Thresh=  0.10000D-02 Tol=  0.10000D-05 Strict=F.
 There are    76 symmetry adapted cartesian basis functions of A   symmetry.
 There are    76 symmetry adapted basis functions of A   symmetry.
    76 basis functions,   144 primitive gaussians,    76 cartesian basis functions
    17 alpha electrons       17 beta electrons
       nuclear repulsion energy       132.2486339032 Hartrees.
 IExCor=  402 DFT=T Ex+Corr=B3LYP ExCW=0 ScaHFX=  0.200000
 ScaDFX=  0.800000  0.720000  1.000000  0.810000 ScalE2=  1.000000  1.000000
 IRadAn=      0 IRanWt=     -1 IRanGd=            0 ICorTp=0 IEmpDi=  4
 NAtoms=   12 NActive=   12 NUniq=   12 SFac= 1.00D+00 NAtFMM=   60 NAOKFM=F Big=F
 Integral buffers will be    131072 words long.
 Raffenetti 2 integral format.
 Two-electron integral symmetry is turned on.
 Leave Link  301 at Thu Mar 19 18:24:46 2026, MaxMem=   536870912 cpu:         0.0
 (Enter C:\G09W\l302.exe)
 NPDir=0 NMtPBC=     1 NCelOv=     1 NCel=       1 NClECP=     1 NCelD=      1
         NCelK=      1 NCelE2=     1 NClLst=     1 CellRange=     0.0.
 One-electron integrals computed using PRISM.
 NBasis=    76 RedAO= T EigKep=  5.32D-03  NBF=    76
 NBsUse=    76 1.00D-06 EigRej= -1.00D+00 NBFU=    76
 Precomputing XC quadrature grid using
 IXCGrd= 4 IRadAn=           0 IRanWt=          -1 IRanGd=           0 AccXCQ= 0.00D+00.
 Generated NRdTot=       0 NPtTot=           0 NUsed=           0 NTot=          32
 NSgBfM=    76    76    76    76    76 MxSgAt=    12 MxSgA2=    12.
 Leave Link  302 at Thu Mar 19 18:24:47 2026, MaxMem=   536870912 cpu:         1.0
 (Enter C:\G09W\l303.exe)
 DipDrv:  MaxL=1.
 Leave Link  303 at Thu Mar 19 18:24:47 2026, MaxMem=   536870912 cpu:         0.0
 (Enter C:\G09W\l401.exe)
 Initial guess from the checkpoint file:  "1-propanol_rdkit.chk"
 B after Tr=     0.000000    0.000000    0.000000
         Rot=    0.999999   -0.000380    0.000149    0.001198 Ang=  -0.14 deg.
 Guess basis will be translated and rotated to current coordinates.
 JPrj=2 DoOrth=T DoCkMO=T.
 Leave Link  401 at Thu Mar 19 18:24:47 2026, MaxMem=   536870912 cpu:         0.0
 (Enter C:\G09W\l502.exe)
 Closed shell SCF:
 Using DIIS extrapolation, IDIIS=  1040.
 Integral symmetry usage will be decided dynamically.
 Keep R1 ints in memory in canonical form, NReq=5217425.
 IVT=       36922 IEndB=       36922 NGot=   536870912 MDV=   532551790
 LenX=   532551790 LenY=   532545573
 Requested convergence on RMS density matrix=1.00D-08 within 128 cycles.
 Requested convergence on MAX density matrix=1.00D-06.
 Requested convergence on             energy=1.00D-06.
 No special actions if energy rises.
 FoFCou: FMM=F IPFlag=           0 FMFlag=           0 FMFlg1=           0
         NFxFlg=           0 DoJE=F BraDBF=F KetDBF=F FulRan=T
         wScrn=  0.000000 ICntrl=     600 IOpCl=  0 I1Cent=           0 NGrid=           0
         NMat0=    1 NMatS0=   2926 NMatT0=    0 NMatD0=    1 NMtDS0=    0 NMtDT0=    0
 Symmetry not used in FoFCou.

 Cycle   1  Pass 1  IDiag  1:
 E= -194.347647936975    
 DIIS: error= 4.90D-04 at cycle   1 NSaved=   1.
 NSaved= 1 IEnMin= 1 EnMin= -194.347647936975     IErMin= 1 ErrMin= 4.90D-04
 ErrMax= 4.90D-04  0.00D+00 EMaxC= 1.00D-01 BMatC= 3.28D-05 BMatP= 3.28D-05
 IDIUse=3 WtCom= 9.95D-01 WtEn= 4.90D-03
 Coeff-Com:  0.100D+01
 Coeff-En:   0.100D+01
 Coeff:      0.100D+01
 Gap=     1.749 Goal=   None    Shift=    0.000
 RMSDP=1.19D-04 MaxDP=1.13D-03              OVMax= 2.01D-03

 Cycle   2  Pass 1  IDiag  1:
 E= -194.347704031048     Delta-E=       -0.000056094073 Rises=F Damp=F
 DIIS: error= 7.59D-05 at cycle   2 NSaved=   2.
 NSaved= 2 IEnMin= 2 EnMin= -194.347704031048     IErMin= 2 ErrMin= 7.59D-05
 ErrMax= 7.59D-05  0.00D+00 EMaxC= 1.00D-01 BMatC= 9.84D-07 BMatP= 3.28D-05
 IDIUse=1 WtCom= 1.00D+00 WtEn= 0.00D+00
 Coeff-Com:  0.385D-02 0.996D+00
 Coeff:      0.385D-02 0.996D+00
 Gap=     0.336 Goal=   None    Shift=    0.000
 RMSDP=2.05D-05 MaxDP=2.61D-04 DE=-5.61D-05 OVMax= 4.13D-04

 Cycle   3  Pass 1  IDiag  1:
 E= -194.347704651083     Delta-E=       -0.000000620035 Rises=F Damp=F
 DIIS: error= 8.53D-05 at cycle   3 NSaved=   3.
 NSaved= 3 IEnMin= 3 EnMin= -194.347704651083     IErMin= 2 ErrMin= 7.59D-05
 ErrMax= 8.53D-05  0.00D+00 EMaxC= 1.00D-01 BMatC= 5.67D-07 BMatP= 9.84D-07
 IDIUse=1 WtCom= 1.00D+00 WtEn= 0.00D+00
 Coeff-Com: -0.256D-01 0.433D+00 0.593D+00
 Coeff:     -0.256D-01 0.433D+00 0.593D+00
 Gap=     0.336 Goal=   None    Shift=    0.000
 RMSDP=1.00D-05 MaxDP=1.93D-04 DE=-6.20D-07 OVMax= 2.13D-04

 Cycle   4  Pass 1  IDiag  1:
 E= -194.347705163234     Delta-E=       -0.000000512151 Rises=F Damp=F
 DIIS: error= 2.07D-05 at cycle   4 NSaved=   4.
 NSaved= 4 IEnMin= 4 EnMin= -194.347705163234     IErMin= 4 ErrMin= 2.07D-05
 ErrMax= 2.07D-05  0.00D+00 EMaxC= 1.00D-01 BMatC= 4.07D-08 BMatP= 5.67D-07
 IDIUse=1 WtCom= 1.00D+00 WtEn= 0.00D+00
 Coeff-Com: -0.120D-01 0.121D+00 0.270D+00 0.620D+00
 Coeff:     -0.120D-01 0.121D+00 0.270D+00 0.620D+00
 Gap=     0.336 Goal=   None    Shift=    0.000
 RMSDP=2.36D-06 MaxDP=4.33D-05 DE=-5.12D-07 OVMax= 4.55D-05

 Cycle   5  Pass 1  IDiag  1:
 E= -194.347705202171     Delta-E=       -0.000000038937 Rises=F Damp=F
 DIIS: error= 2.17D-06 at cycle   5 NSaved=   5.
 NSaved= 5 IEnMin= 5 EnMin= -194.347705202171     IErMin= 5 ErrMin= 2.17D-06
 ErrMax= 2.17D-06  0.00D+00 EMaxC= 1.00D-01 BMatC= 4.34D-10 BMatP= 4.07D-08
 IDIUse=1 WtCom= 1.00D+00 WtEn= 0.00D+00
 Coeff-Com: -0.209D-02 0.165D-01 0.495D-01 0.151D+00 0.785D+00
 Coeff:     -0.209D-02 0.165D-01 0.495D-01 0.151D+00 0.785D+00
 Gap=     0.336 Goal=   None    Shift=    0.000
 RMSDP=3.77D-07 MaxDP=8.59D-06 DE=-3.89D-08 OVMax= 6.48D-06

 Cycle   6  Pass 1  IDiag  1:
 E= -194.347705202312     Delta-E=       -0.000000000142 Rises=F Damp=F
 DIIS: error= 1.89D-06 at cycle   6 NSaved=   6.
 NSaved= 6 IEnMin= 6 EnMin= -194.347705202312     IErMin= 6 ErrMin= 1.89D-06
 ErrMax= 1.89D-06  0.00D+00 EMaxC= 1.00D-01 BMatC= 2.94D-10 BMatP= 4.34D-10
 IDIUse=1 WtCom= 1.00D+00 WtEn= 0.00D+00
 Coeff-Com: -0.494D-05-0.307D-02 0.984D-03 0.255D-01 0.479D+00 0.497D+00
 Coeff:     -0.494D-05-0.307D-02 0.984D-03 0.255D-01 0.479D+00 0.497D+00
 Gap=     0.336 Goal=   None    Shift=    0.000
 RMSDP=1.79D-07 MaxDP=3.71D-06 DE=-1.42D-10 OVMax= 3.14D-06

 Cycle   7  Pass 1  IDiag  1:
 E= -194.347705202524     Delta-E=       -0.000000000211 Rises=F Damp=F
 DIIS: error= 1.54D-07 at cycle   7 NSaved=   7.
 NSaved= 7 IEnMin= 7 EnMin= -194.347705202524     IErMin= 7 ErrMin= 1.54D-07
 ErrMax= 1.54D-07  0.00D+00 EMaxC= 1.00D-01 BMatC= 1.82D-12 BMatP= 2.94D-10
 IDIUse=1 WtCom= 1.00D+00 WtEn= 0.00D+00
 Coeff-Com:  0.996D-04-0.167D-02-0.213D-02-0.113D-03 0.989D-01 0.138D+00
 Coeff-Com:  0.767D+00
 Coeff:      0.996D-04-0.167D-02-0.213D-02-0.113D-03 0.989D-01 0.138D+00
 Coeff:      0.767D+00
 Gap=     0.336 Goal=   None    Shift=    0.000
 RMSDP=2.16D-08 MaxDP=3.04D-07 DE=-2.11D-10 OVMax= 3.39D-07

 Cycle   8  Pass 1  IDiag  1:
 E= -194.347705202525     Delta-E=       -0.000000000001 Rises=F Damp=F
 DIIS: error= 3.28D-08 at cycle   8 NSaved=   8.
 NSaved= 8 IEnMin= 8 EnMin= -194.347705202525     IErMin= 8 ErrMin= 3.28D-08
 ErrMax= 3.28D-08  0.00D+00 EMaxC= 1.00D-01 BMatC= 1.84D-13 BMatP= 1.82D-12
 IDIUse=1 WtCom= 1.00D+00 WtEn= 0.00D+00
 Coeff-Com:  0.436D-04-0.590D-03-0.943D-03-0.992D-03 0.247D-01 0.395D-01
 Coeff-Com:  0.316D+00 0.623D+00
 Coeff:      0.436D-04-0.590D-03-0.943D-03-0.992D-03 0.247D-01 0.395D-01
 Coeff:      0.316D+00 0.623D+00
 Gap=     0.336 Goal=   None    Shift=    0.000
 RMSDP=6.58D-09 MaxDP=1.07D-07 DE=-1.31D-12 OVMax= 1.18D-07

 SCF Done:  E(RB3LYP) =  -194.347705203     A.U. after    8 cycles
            NFock=  8  Conv=0.66D-08     -V/T= 2.0095
 KE= 1.925219503120D+02 PE=-7.172198100119D+02 EE= 1.981015205942D+02
 Leave Link  502 at Thu Mar 19 18:24:53 2026, MaxMem=   536870912 cpu:         6.0
 (Enter C:\G09W\l701.exe)
 Compute integral first derivatives.
 ... and contract with generalized density number  0.
 Leave Link  701 at Thu Mar 19 18:24:53 2026, MaxMem=   536870912 cpu:         0.0
 (Enter C:\G09W\l702.exe)
 L702 exits ... SP integral derivatives will be done elsewhere.
 Leave Link  702 at Thu Mar 19 18:24:54 2026, MaxMem=   536870912 cpu:         0.0
 (Enter C:\G09W\l703.exe)
 Compute integral first derivatives, UseDBF=F ICtDFT=           0.
 Integral derivatives from FoFJK, PRISM(SPDF).
 Calling FoFJK, ICntrl=      2127 FMM=F ISym2X=0 I1Cent= 0 IOpClX= 0 NMat=1 NMatS=1 NMatT=0.
 FoFJK:  IHMeth= 1 ICntrl=    2127 DoSepK=F KAlg= 0 I1Cent=   0 FoldK=F
 IRaf=         0 NMat=   1 IRICut=       1 DoRegI=T DoRafI=F ISym2E= 0.
 FoFCou: FMM=F IPFlag=           0 FMFlag=      100000 FMFlg1=         800
         NFxFlg=           0 DoJE=F BraDBF=F KetDBF=F FulRan=T
         wScrn=  0.000000 ICntrl=    2127 IOpCl=  0 I1Cent=           0 NGrid=           0
         NMat0=    1 NMatS0=      1 NMatT0=    0 NMatD0=    1 NMtDS0=    0 NMtDT0=    0
 Symmetry not used in FoFCou.
 Leave Link  703 at Thu Mar 19 18:24:55 2026, MaxMem=   536870912 cpu:         1.0
 (Enter C:\G09W\l716.exe)
 Dipole        =-3.09098758D-01 3.49576652D-01 3.69056919D-01
 ***** Axes restored to original set *****
 -------------------------------------------------------------------
 Center     Atomic                   Forces (Hartrees/Bohr)
 Number     Number              X              Y              Z
 -------------------------------------------------------------------
      1        6           0.000134324   -0.000242003   -0.000073398
      2        6          -0.000445157    0.000515543    0.000137457
      3        6           0.000031102    0.000465073   -0.001055302
      4        8          -0.000110490   -0.000544191    0.000767092
      5        1          -0.000026289   -0.000073017    0.000035812
      6        1           0.000142647   -0.000031046   -0.000047458
      7        1           0.000097291    0.000032267   -0.000006453
      8        1           0.000128984   -0.000084012    0.000066148
      9        1           0.000121725   -0.000107837    0.000045954
     10        1          -0.000083283   -0.000051610    0.000081894
     11        1           0.000047645   -0.000046442   -0.000041265
     12        1          -0.000038499    0.000167275    0.000089517
 -------------------------------------------------------------------
 Cartesian Forces:  Max     0.001055302 RMS     0.000286284
 Leave Link  716 at Thu Mar 19 18:24:55 2026, MaxMem=   536870912 cpu:         0.0
 (Enter C:\G09W\l103.exe)

 GradGradGradGradGradGradGradGradGradGradGradGradGradGradGradGradGradGrad
 Berny optimization.
 Using GEDIIS/GDIIS optimizer.
 FormGI is forming the generalized inverse of G from B-inverse, IUseBI=4.
 Internal  Forces:  Max     0.000948340 RMS     0.000162867
 Search for a local minimum.
 Step number   3 out of a maximum of   61
 All quantities printed in internal units (Hartrees-Bohrs-Radians)
[...]
   R11        1.83061   0.00000   0.00001   0.00000   0.00001   1.83061
    A1        1.93805   0.00000  -0.00002  -0.00002  -0.00004   1.93801
    A2        1.94021   0.00000  -0.00003   0.00000  -0.00002   1.94018
    A3        1.93119   0.00000  -0.00001   0.00003   0.00003   1.93121
    A4        1.88026   0.00000   0.00001  -0.00001   0.00001   1.88027
    A5        1.88230   0.00000  -0.00001  -0.00002  -0.00003   1.88227
    A6        1.88971   0.00000   0.00006   0.00001   0.00007   1.88978
    A7        1.97721   0.00000   0.00000   0.00000   0.00000   1.97721
    A8        1.91919   0.00000   0.00002   0.00000   0.00002   1.91921
    A9        1.92428   0.00000  -0.00002   0.00004   0.00001   1.92429
   A10        1.88872   0.00000  -0.00001  -0.00002  -0.00004   1.88868
   A11        1.88658   0.00000   0.00003   0.00001   0.00004   1.88662
   A12        1.86396   0.00000  -0.00002  -0.00002  -0.00005   1.86391
   A13        1.88977   0.00001   0.00002   0.00002   0.00004   1.88981
   A14        1.91483   0.00000   0.00003  -0.00004  -0.00001   1.91481
   A15        1.91343   0.00000   0.00007  -0.00003   0.00003   1.91347
   A16        1.93521   0.00000  -0.00010   0.00008  -0.00002   1.93520
   A17        1.93626   0.00000  -0.00002  -0.00001  -0.00003   1.93623
   A18        1.87442   0.00000   0.00000  -0.00002  -0.00002   1.87440
   A19        1.88446   0.00001   0.00000   0.00005   0.00005   1.88450
    D1       -1.06774   0.00000   0.00050   0.00016   0.00065  -1.06709
    D2        3.09969   0.00000   0.00050   0.00019   0.00068   3.10038
    D3        1.04895   0.00000   0.00053   0.00020   0.00072   1.04967
    D4        3.12235   0.00000   0.00051   0.00018   0.00069   3.12304
    D5        1.00660   0.00000   0.00051   0.00021   0.00072   1.00732
    D6       -1.04414   0.00000   0.00054   0.00021   0.00076  -1.04339
    D7        1.02193   0.00000   0.00046   0.00014   0.00060   1.02254
    D8       -1.09382   0.00000   0.00046   0.00017   0.00063  -1.09318
    D9        3.13863   0.00000   0.00049   0.00018   0.00067   3.13930
   D10       -1.09797   0.00000  -0.00002   0.00017   0.00015  -1.09782
   D11        3.07105   0.00000   0.00007   0.00008   0.00015   3.07120
   D12        1.01664   0.00000   0.00001   0.00015   0.00015   1.01679
   D13        1.03485   0.00000  -0.00001   0.00015   0.00015   1.03499
   D14       -1.07932   0.00000   0.00009   0.00006   0.00015  -1.07917
   D15       -3.13373   0.00000   0.00002   0.00013   0.00016  -3.13358
   D16        3.04745   0.00000  -0.00002   0.00012   0.00010   3.04754
   D17        0.93328   0.00000   0.00007   0.00003   0.00010   0.93338
   D18       -1.12113   0.00000   0.00001   0.00009   0.00010  -1.12103
   D19        3.07853   0.00000   0.00002  -0.00011  -0.00009   3.07844
   D20       -1.10315   0.00000   0.00001  -0.00010  -0.00009  -1.10324
   D21        0.97811   0.00000  -0.00006  -0.00008  -0.00014   0.97797
         Item               Value     Threshold  Converged?
 Maximum Force            0.000015     0.000450     YES
 RMS     Force            0.000004     0.000300     YES
 Maximum Displacement     0.001073     0.001800     YES
 RMS     Displacement     0.000314     0.001200     YES
 Predicted change in Energy=-7.665778D-09
 Optimization completed.
    -- Stationary point found.
                           ----------------------------
                           !   Optimized Parameters   !
                           ! (Angstroms and Degrees)  !
 --------------------------                            --------------------------
 ! Name  Definition              Value          Derivative Info.                !
 --------------------------------------------------------------------------------
 ! R1    R(1,2)                  1.5316         -DE/DX =    0.0                 !
 ! R2    R(1,5)                  1.0975         -DE/DX =    0.0                 !
 ! R3    R(1,6)                  1.0958         -DE/DX =    0.0                 !
 ! R4    R(1,7)                  1.0939         -DE/DX =    0.0                 !
 ! R5    R(2,3)                  1.5243         -DE/DX =    0.0                 !
 ! R6    R(2,8)                  1.0977         -DE/DX =    0.0                 !
 ! R7    R(2,9)                  1.0984         -DE/DX =    0.0                 !
 ! R8    R(3,4)                  1.4256         -DE/DX =    0.0                 !
 ! R9    R(3,10)                 1.1025         -DE/DX =    0.0                 !
 ! R10   R(3,11)                 1.1035         -DE/DX =    0.0                 !
 ! R11   R(4,12)                 0.9687         -DE/DX =    0.0                 !
 ! A1    A(2,1,5)              111.042          -DE/DX =    0.0                 !
 ! A2    A(2,1,6)              111.1658         -DE/DX =    0.0                 !
 ! A3    A(2,1,7)              110.6488         -DE/DX =    0.0                 !
 ! A4    A(5,1,6)              107.7312         -DE/DX =    0.0                 !
 ! A5    A(5,1,7)              107.8479         -DE/DX =    0.0                 !
 ! A6    A(6,1,7)              108.2723         -DE/DX =    0.0                 !
 ! A7    A(1,2,3)              113.2856         -DE/DX =    0.0                 !
 ! A8    A(1,2,8)              109.9614         -DE/DX =    0.0                 !
 ! A9    A(1,2,9)              110.2532         -DE/DX =    0.0                 !
 ! A10   A(3,2,8)              108.2155         -DE/DX =    0.0                 !
 ! A11   A(3,2,9)              108.0932         -DE/DX =    0.0                 !
 ! A12   A(8,2,9)              106.797          -DE/DX =    0.0                 !
 ! A13   A(2,3,4)              108.2759         -DE/DX =    0.0                 !
 ! A14   A(2,3,10)             109.7114         -DE/DX =    0.0                 !
 ! A15   A(2,3,11)             109.6317         -DE/DX =    0.0                 !
 ! A16   A(4,3,10)             110.8795         -DE/DX =    0.0                 !
 ! A17   A(4,3,11)             110.9397         -DE/DX =    0.0                 !
 ! A18   A(10,3,11)            107.3961         -DE/DX =    0.0                 !
 ! A19   A(3,4,12)             107.9714         -DE/DX =    0.0                 !
 ! D1    D(5,1,2,3)            -61.1772         -DE/DX =    0.0                 !
 ! D2    D(5,1,2,8)            177.5993         -DE/DX =    0.0                 !
 ! D3    D(5,1,2,9)             60.1003         -DE/DX =    0.0                 !
 ! D4    D(6,1,2,3)            178.8975         -DE/DX =    0.0                 !
 ! D5    D(6,1,2,8)             57.674          -DE/DX =    0.0                 !
 ! D6    D(6,1,2,9)            -59.825          -DE/DX =    0.0                 !
 ! D7    D(7,1,2,3)             58.5525         -DE/DX =    0.0                 !
 ! D8    D(7,1,2,8)            -62.671          -DE/DX =    0.0                 !
 ! D9    D(7,1,2,9)            179.83           -DE/DX =    0.0                 !
 ! D10   D(1,2,3,4)            -62.909          -DE/DX =    0.0                 !
 ! D11   D(1,2,3,10)           175.9583         -DE/DX =    0.0                 !
 ! D12   D(1,2,3,11)            58.249          -DE/DX =    0.0                 !
 ! D13   D(8,2,3,4)             59.2923         -DE/DX =    0.0                 !
 ! D14   D(8,2,3,10)           -61.8404         -DE/DX =    0.0                 !
 ! D15   D(8,2,3,11)          -179.5497         -DE/DX =    0.0                 !
 ! D16   D(9,2,3,4)            174.6058         -DE/DX =    0.0                 !
 ! D17   D(9,2,3,10)            53.4732         -DE/DX =    0.0                 !
 ! D18   D(9,2,3,11)           -64.2361         -DE/DX =    0.0                 !
 ! D19   D(2,3,4,12)           176.387          -DE/DX =    0.0                 !
 ! D20   D(10,3,4,12)          -63.2059         -DE/DX =    0.0                 !
 ! D21   D(11,3,4,12)           56.0415         -DE/DX =    0.0                 !
 --------------------------------------------------------------------------------
 Lowest energy point so far.  Saving SCF results.
 GradGradGradGradGradGradGradGradGradGradGradGradGradGradGradGradGradGrad

 Largest change from initial coordinates is atom   12       0.093 Angstoms.
 Leave Link  103 at Thu Mar 19 18:25:45 2026, MaxMem=   536870912 cpu:         0.0
 (Enter C:\G09W\l202.exe)
                          Input orientation:                          
 ---------------------------------------------------------------------
 Center     Atomic      Atomic             Coordinates (Angstroms)
 Number     Number       Type             X           Y           Z
 ---------------------------------------------------------------------
      1          6           0       -1.282023    0.658077    0.239304
      2          6           0       -0.437137   -0.618691    0.195424
      3          6           0        1.055718   -0.348589    0.047016
      4          8           0        1.270019    0.303465   -1.202511
      5          1           0       -1.005874    1.284034    1.097425
      6          1           0       -2.348883    0.423723    0.326765
      7          1           0       -1.134188    1.249859   -0.668727
      8          1           0       -0.756510   -1.250737   -0.643249
      9          1           0       -0.588125   -1.206221    1.111147
     10          1           0        1.612168   -1.299221    0.094705
     11          1           0        1.403839    0.279835    0.884603
     12          1           0        2.210993    0.524465   -1.266816
 ---------------------------------------------------------------------
                    Distance matrix (angstroms):
                    1          2          3          4          5
     1  C    0.000000
     2  C    1.531632   0.000000
     3  C    2.552525   1.524334   0.000000
     4  O    2.952541   2.391438   1.425629   0.000000
     5  H    1.097476   2.181154   2.831780   3.380963   0.000000
     6  H    1.095793   2.181434   3.502290   3.930597   1.771363
     7  H    1.093884   2.173503   2.804107   2.638332   1.771137
     8  H    2.167633   1.097658   2.138809   2.614409   3.084994
     9  H    2.171915   1.098426   2.137786   3.329394   2.525089
    10  H    3.496894   2.161693   1.102547   2.090081   3.812190
    11  H    2.788070   2.161367   1.103475   2.091534   2.619241
    12  H    3.806233   3.233813   1.955260   0.968716   4.063842
                    6          7          8          9         10
     6  H    0.000000
     7  H    1.774539   0.000000
     8  H    2.506072   2.529084   0.000000
     9  H    2.524330   3.081958   1.763020   0.000000
    10  H    4.325773   3.824017   2.481443   2.425509   0.000000
    11  H    3.796684   3.129754   3.056810   2.495518   1.777852
    12  H    4.831368   3.474787   3.513723   4.060179   2.353330
                   11         12
    11  H    0.000000
    12  H    2.310832   0.000000
 Stoichiometry    C3H8O
 Framework group  C1[X(C3H8O)]
 Deg. of freedom    30
 Full point group                 C1      NOp   1
 RotChk:  IX=0 Diff= 6.94D-16
 Largest Abelian subgroup         C1      NOp   1
 Largest concise Abelian subgroup C1      NOp   1
                         Standard orientation:                         
 ---------------------------------------------------------------------
 Center     Atomic      Atomic             Coordinates (Angstroms)
 Number     Number       Type             X           Y           Z
 ---------------------------------------------------------------------
      1          6           0        1.545109   -0.515291    0.129101
      2          6           0        0.634278    0.642892   -0.289103
      3          6           0       -0.771587    0.543891    0.291705
      4          8           0       -1.384249   -0.637597   -0.219324
      5          1           0        1.674168   -0.541486    1.218647
      6          1           0        2.538964   -0.419986   -0.322487
      7          1           0        1.117915   -1.473362   -0.181038
      8          1           0        0.551840    0.678597   -1.383078
      9          1           0        1.067685    1.601088    0.028004
     10          1           0       -1.352372    1.439122    0.014469
     11          1           0       -0.716354    0.514587    1.393407
     12          1           0       -2.254650   -0.726735    0.196449
 ---------------------------------------------------------------------
 Rotational constants (GHZ):     14.3474468      5.0908282      4.3018035
 Leave Link  202 at Thu Mar 19 18:25:45 2026, MaxMem=   536870912 cpu:         0.0
 (Enter C:\G09W\l601.exe)
 Copying SCF densities to generalized density rwf, IOpCl= 0 IROHF=0.

 **********************************************************************

            Population analysis using the SCF density.

 **********************************************************************

 Orbital symmetries:
       Occupied  (A) (A) (A) (A) (A) (A) (A) (A) (A) (A) (A) (A)
                 (A) (A) (A) (A) (A)
       Virtual   (A) (A) (A) (A) (A) (A) (A) (A) (A) (A) (A) (A)
                 (A) (A) (A) (A) (A) (A) (A) (A) (A) (A) (A) (A)
                 (A) (A) (A) (A) (A) (A) (A) (A) (A) (A) (A) (A)
                 (A) (A) (A) (A) (A) (A) (A) (A) (A) (A) (A) (A)
                 (A) (A) (A) (A) (A) (A) (A) (A) (A) (A) (A)
 The electronic state is 1-A.
 Alpha  occ. eigenvalues --  -19.13805 -10.22586 -10.17721 -10.16554  -1.00946
 Alpha  occ. eigenvalues --   -0.76940  -0.66889  -0.57611  -0.51291  -0.45682
 Alpha  occ. eigenvalues --   -0.41535  -0.41027  -0.36502  -0.34396  -0.33462
 Alpha  occ. eigenvalues --   -0.31599  -0.26173
 Alpha virt. eigenvalues --    0.07453   0.11557   0.14713   0.14870   0.16990
 Alpha virt. eigenvalues --    0.17458   0.19118   0.20284   0.22747   0.23466
 Alpha virt. eigenvalues --    0.26639   0.52163   0.53182   0.55496   0.56426
 Alpha virt. eigenvalues --    0.59702   0.65773   0.69538   0.72048   0.80585
 Alpha virt. eigenvalues --    0.82242   0.85394   0.86478   0.88619   0.91817
 Alpha virt. eigenvalues --    0.93619   0.93990   0.96987   1.00957   1.01362
 Alpha virt. eigenvalues --    1.05420   1.20044   1.29183   1.43347   1.47111
 Alpha virt. eigenvalues --    1.55001   1.67153   1.69525   1.74933   1.76527
 Alpha virt. eigenvalues --    1.88102   1.96003   2.00014   2.05217   2.05562
 Alpha virt. eigenvalues --    2.21682   2.23354   2.31939   2.36814   2.39890
 Alpha virt. eigenvalues --    2.42230   2.51447   2.62512   2.66895   2.85188
 Alpha virt. eigenvalues --    3.73312   4.15465   4.31887   4.48182
          Condensed to atoms (all electrons):
               1          2          3          4          5          6
     1  C    5.061981   0.371234  -0.042120  -0.000297   0.375032   0.374331
     2  C    0.371234   4.993716   0.384579  -0.057740  -0.036234  -0.029877
     3  C   -0.042120   0.384579   4.809589   0.251780  -0.004009   0.004589
     4  O   -0.000297  -0.057740   0.251780   8.255656  -0.000373   0.000089
     5  H    0.375032  -0.036234  -0.004009  -0.000373   0.587068  -0.032128
     6  H    0.374331  -0.029877   0.004589   0.000089  -0.032128   0.580367
     7  H    0.382222  -0.034829  -0.007434   0.009290  -0.030397  -0.030075
     8  H   -0.040649   0.372870  -0.036455   0.001842   0.005204  -0.003180
     9  H   -0.036749   0.364828  -0.035045   0.003149  -0.004231  -0.003005
    10  H    0.006179  -0.040522   0.364592  -0.039330  -0.000077  -0.000138
    11  H   -0.010441  -0.039559   0.358893  -0.039814   0.005678  -0.000065
    12  H    0.000131   0.007059  -0.022194   0.231856  -0.000030   0.000004
               7          8          9         10         11         12
     1  C    0.382222  -0.040649  -0.036749   0.006179  -0.010441   0.000131
     2  C   -0.034829   0.372870   0.364828  -0.040522  -0.039559   0.007059
     3  C   -0.007434  -0.036455  -0.035045   0.364592   0.358893  -0.022194
     4  O    0.009290   0.001842   0.003149  -0.039330  -0.039814   0.231856
     5  H   -0.030397   0.005204  -0.004231  -0.000077   0.005678  -0.000030
     6  H   -0.030075  -0.003180  -0.003005  -0.000138  -0.000065   0.000004
     7  H    0.541356  -0.003440   0.005055   0.000234   0.000101  -0.000451
     8  H   -0.003440   0.591556  -0.034171  -0.006489   0.006866  -0.000112
     9  H    0.005055  -0.034171   0.611570  -0.000263  -0.000386  -0.000314
    10  H    0.000234  -0.006489  -0.000263   0.660977  -0.058718  -0.003227
    11  H    0.000101   0.006866  -0.000386  -0.058718   0.668477  -0.004925
    12  H   -0.000451  -0.000112  -0.000314  -0.003227  -0.004925   0.401301
 Mulliken charges:
               1
     1  C   -0.440854
     2  C   -0.255526
     3  C   -0.026765
     4  O   -0.616107
     5  H    0.134497
     6  H    0.139090
     7  H    0.168367
     8  H    0.146159
     9  H    0.129563
    10  H    0.116783
    11  H    0.113891
    12  H    0.390902
 Sum of Mulliken charges =   0.00000
 Mulliken charges with hydrogens summed into heavy atoms:
               1
     1  C    0.001100
     2  C    0.020196
     3  C    0.203908
     4  O   -0.225205
 Electronic spatial extent (au):  <R**2>=            340.9127
 Charge=              0.0000 electrons
 Dipole moment (field-independent basis, Debye):
    X=             -0.7647    Y=              0.8454    Z=              0.9897  Tot=              1.5097
 Quadrupole moment (field-independent basis, Debye-Ang):
   XX=            -22.4973   YY=            -26.8814   ZZ=            -26.5878
   XY=              0.2448   XZ=             -2.0289   YZ=             -0.5892
 Traceless Quadrupole moment (field-independent basis, Debye-Ang):
   XX=              2.8249   YY=             -1.5592   ZZ=             -1.2656
   XY=              0.2448   XZ=             -2.0289   YZ=             -0.5892
 Octapole moment (field-independent basis, Debye-Ang**2):
  XXX=            -20.8002  YYY=             -2.3175  ZZZ=             -0.2933  XYY=             -2.9756
  XXY=             -3.5746  XXZ=              2.7923  XZZ=             -1.7189  YZZ=             -0.6946
  YYZ=              0.0240  XYZ=              1.4899
 Hexadecapole moment (field-independent basis, Debye-Ang**3):
 XXXX=           -235.2382 YYYY=           -106.0580 ZZZZ=            -56.2403 XXXY=             16.3823
 XXXZ=             -8.0773 YYYX=              5.6461 YYYZ=              1.0608 ZZZX=              0.3774
 ZZZY=             -0.4097 XXYY=            -61.3484 XXZZ=            -56.0402 YYZZ=            -28.3623
 XXYZ=             -2.0430 YYXZ=             -0.2354 ZZXY=              1.4328
 N-N= 1.323004515053D+02 E-N=-7.173240695229D+02  KE= 1.925260974946D+02
 No NMR shielding tensors so no spin-rotation constants.
 Leave Link  601 at Thu Mar 19 18:25:45 2026, MaxMem=   536870912 cpu:         0.0
 (Enter C:\G09W\l9999.exe)
 1|1|UNPC-DESKTOP-GS7R1K3|FOpt|RB3LYP|6-31G(d)|C3H8O1|1172|19-Mar-2026|
 0||#p opt B3LYP/6-31G(d)||1-propanol||0,1|C,-1.2820229303,0.6580772211
 ,0.2393039513|C,-0.4371366589,-0.6186910889,0.1954238316|C,1.055718272
 ,-0.3485894281,0.0470164008|O,1.2700185168,0.3034651283,-1.2025112652|
 H,-1.0058735063,1.2840341902,1.097425185|H,-2.3488828983,0.4237234474,
 0.3267650204|H,-1.134187675,1.2498586843,-0.668727191|H,-0.7565095339,
 -1.2507365883,-0.6432486432|H,-0.5881252408,-1.2062213535,1.1111472746
 |H,1.6121683306,-1.2992207242,0.0947052553|H,1.4038389718,0.2798352514
 ,0.884603077|H,2.2109933524,0.5244652602,-1.2668158967||Version=EM64W-
 G09RevD.01|State=1-A|HF=-194.347719|RMSD=3.700e-009|RMSF=7.035e-006|Di
 pole=0.4651794,-0.0932586,0.3573347|Quadrupole=2.5570171,-0.8475323,-1
 .7094848,0.7171509,-0.45177,-0.112825|PG=C01 [X(C3H8O1)]||@


 IT IS BETTER TO THINK YOU ARE HALF DRY THAN TO KNOW YOU
 ARE ALL WET.  -- SNOOPY
 Job cpu time:       0 days  0 hours  1 minutes 22.0 seconds.
 File lengths (MBytes):  RWF=      5 Int=      0 D2E=      0 Chk=      2 Scr=      1
 Normal termination of Gaussian 09 at Thu Mar 19 18:25:45 2026.
