 Entering Gaussian System, Link 0=C:\G09W\g09.exe
 Input=dimethylsulfoxide_ml.com
 Output=C:\workspace\delta_chem\data\raw\benchmark_new\dimethylsulfoxide\dimethylsulfoxide_ml.out
 Initial command:
 C:\G09W\l1.exe ".\Gau-3176.inp" "C:\workspace\delta_chem\data\raw\benchmark_new\dimethylsulfoxide\dimethylsulfoxide_ml.out" /scrdir=".\"
 Entering Link 1 = C:\G09W\l1.exe PID=     18040.
  
 Copyright (c) 1988,1990,1992,1993,1995,1998,2003,2009,2013,
            Gaussian, Inc.  All Rights Reserved.
  
 This is part of the Gaussian(R) 09 program.  It is based on
 the Gaussian(R) 03 system (copyright 2003, Gaussian, Inc.),
 the Gaussian(R) 98 system (copyright 1998, Gaussian, Inc.),
 the Gaussian(R) 94 system (copyright 1995, Gaussian, Inc.),
 the Gaussian 92(TM) system (copyright 1992, Gaussian, Inc.),
 the Gaussian 90(TM) system (copyright 1990, Gaussian, Inc.),
 the Gaussian 88(TM) system (copyright 1988, Gaussian, Inc.),
 the Gaussian 86(TM) system (copyright 1986, Carnegie Mellon
 University), and the Gaussian 82(TM) system (copyright 1983,
 Carnegie Mellon University). Gaussian is a federally registered
 trademark of Gaussian, Inc.
  
 This software contains proprietary and confidential information,
 including trade secrets, belonging to Gaussian, Inc.
  
 This software is provided under written license and may be
 used, copied, transmitted, or stored only in accord with that
 written license.
  
 The following legend is applicable only to US Government
 contracts under FAR:
  
                    RESTRICTED RIGHTS LEGEND
  
 Use, reproduction and disclosure by the US Government is
 subject to restrictions as set forth in subparagraphs (a)
 and (c) of the Commercial Computer Software - Restricted
 Rights clause in FAR 52.227-19.
  
 Gaussian, Inc.
 340 Quinnipiac St., Bldg. 40, Wallingford CT 06492
  
  
 ---------------------------------------------------------------
 Warning -- This program may not be used in any manner that
 competes with the business of Gaussian, Inc. or will provide
 assistance to any competitor of Gaussian, Inc.  The licensee
 of this program is prohibited from giving any competitor of
 Gaussian, Inc. access to this program.  By using this program,
 the user acknowledges that Gaussian, Inc. is engaged in the
 business of creating and licensing software in the field of
 computational chemistry and represents and warrants to the
 licensee that it is not a competitor of Gaussian, Inc. and that
 it will not use this program in any manner prohibited above.
 ---------------------------------------------------------------
  

 Cite this work as:
 Gaussian 09, Revision D.01,
 M. J. Frisch, G. W. Trucks, H. B. Schlegel, G. E. Scuseria, 
 M. A. Robb, J. R. Cheeseman, G. Scalmani, V. Barone, B. Mennucci, 
 G. A. Petersson, H. Nakatsuji, M. Caricato, X. Li, H. P. Hratchian, 
 A. F. Izmaylov, J. Bloino, G. Zheng, J. L. Sonnenberg, M. Hada, 
 M. Ehara, K. Toyota, R. Fukuda, J. Hasegawa, M. Ishida, T. Nakajima, 
 Y. Honda, O. Kitao, H. Nakai, T. Vreven, J. A. Montgomery, Jr., 
 J. E. Peralta, F. Ogliaro, M. Bearpark, J. J. Heyd, E. Brothers, 
 K. N. Kudin, V. N. Staroverov, T. Keith, R. Kobayashi, J. Normand, 
 K. Raghavachari, A. Rendell, J. C. Burant, S. S. Iyengar, J. Tomasi, 
 M. Cossi, N. Rega, J. M. Millam, M. Klene, J. E. Knox, J. B. Cross, 
 V. Bakken, C. Adamo, J. Jaramillo, R. Gomperts, R. E. Stratmann, 
 O. Yazyev, A. J. Austin, R. Cammi, C. Pomelli, J. W. Ochterski, 
 R. L. Martin, K. Morokuma, V. G. Zakrzewski, G. A. Voth, 
 P. Salvador, J. J. Dannenberg, S. Dapprich, A. D. Daniels, 
 O. Farkas, J. B. Foresman, J. V. Ortiz, J. Cioslowski, 
 and D. J. Fox, Gaussian, Inc., Wallingford CT, 2013.
 
 ******************************************
 Gaussian 09:  EM64W-G09RevD.01 13-Apr-2013
                20-Mar-2026 
 ******************************************
 %NProcShared=4
 Will use up to    4 processors via shared memory.
 %Mem=4GB
 %Chk=dimethylsulfoxide_ml.chk
 --------------------------
 #p opt freq B3LYP/6-31G(d)
 --------------------------
 1/14=-1,18=20,19=15,26=3,38=1/1,3;
 2/9=110,12=2,17=6,18=5,40=1/2;
 3/5=1,6=6,7=1,11=2,16=1,25=1,30=1,71=1,74=-5/1,2,3;
 4//1;
 5/5=2,38=5/2;
 6/7=2,8=2,9=2,10=2,28=1/1;
 7//1,2,3,16;
 1/14=-1,18=20,19=15,26=3/3(2);
 2/9=110/2;
 99//99;
 2/9=110/2;
 3/5=1,6=6,7=1,11=2,16=1,25=1,30=1,71=1,74=-5/1,2,3;
 4/5=5,16=3,69=1/1;
 5/5=2,38=5/2;
 7//1,2,3,16;
 1/14=-1,18=20,19=15,26=3/3(-5);
 2/9=110/2;
 6/7=2,8=2,9=2,10=2,19=2,28=1/1;
 99/9=1/99;
 Leave Link    1 at Fri Mar 20 17:40:23 2026, MaxMem=   536870912 cpu:         0.0
 (Enter C:\G09W\l101.exe)
 --------------------
 dimethylsulfoxide ml
 --------------------
 Symbolic Z-matrix:
 Charge =  0 Multiplicity = 1
 C                    -1.15563  -0.37612  -0.60796 
 S                     0.03135   1.01397  -0.36338 
 C                     1.30572  -0.02242   0.4679 
 O                    -0.58522   1.91563   0.67002 
 H                    -1.41556  -0.82088   0.35915 
 H                    -2.06154   0.01775  -1.08201 
 H                    -0.70404  -1.13225  -1.26105 
 H                     1.64777  -0.7718   -0.23812 
 H                     2.1101    0.65701   0.73248 
 H                     0.8688   -0.47079   1.35274 
 
 NAtoms=     10 NQM=       10 NQMF=       0 NMMI=      0 NMMIF=      0
                NMic=       0 NMicF=      0.
                    Isotopes and Nuclear Properties:
 (Nuclear quadrupole moments (NQMom) in fm**2, nuclear magnetic moments (NMagM)
  in nuclear magnetons)

  Atom         1           2           3           4           5           6           7           8           9          10
 IAtWgt=          12          32          12          16           1           1           1           1           1           1
 AtmWgt=  12.0000000  31.9720718  12.0000000  15.9949146   1.0078250   1.0078250   1.0078250   1.0078250   1.0078250   1.0078250
 NucSpn=           0           0           0           0           1           1           1           1           1           1
 AtZEff=   0.0000000   0.0000000   0.0000000   0.0000000   0.0000000   0.0000000   0.0000000   0.0000000   0.0000000   0.0000000
 NQMom=    0.0000000   0.0000000   0.0000000   0.0000000   0.0000000   0.0000000   0.0000000   0.0000000   0.0000000   0.0000000
 NMagM=    0.0000000   0.0000000   0.0000000   0.0000000   2.7928460   2.7928460   2.7928460   2.7928460   2.7928460   2.7928460
 AtZNuc=   6.0000000  16.0000000   6.0000000   8.0000000   1.0000000   1.0000000   1.0000000   1.0000000   1.0000000   1.0000000
 Leave Link  101 at Fri Mar 20 17:40:23 2026, MaxMem=   536870912 cpu:         0.0
 (Enter C:\G09W\l103.exe)

 GradGradGradGradGradGradGradGradGradGradGradGradGradGradGradGradGradGrad
 Berny optimization.
 Initialization pass.
                           ----------------------------
                           !    Initial Parameters    !
                           ! (Angstroms and Degrees)  !
 --------------------------                            --------------------------
 ! Name  Definition              Value          Derivative Info.                !
 --------------------------------------------------------------------------------
 ! R1    R(1,2)                  1.8442         estimate D2E/DX2                !
 ! R2    R(1,5)                  1.0958         estimate D2E/DX2                !
 ! R3    R(1,6)                  1.0957         estimate D2E/DX2                !
 ! R4    R(1,7)                  1.0964         estimate D2E/DX2                !
 ! R5    R(2,3)                  1.841          estimate D2E/DX2                !
 ! R6    R(2,4)                  1.5037         estimate D2E/DX2                !
 ! R7    R(3,8)                  1.0849         estimate D2E/DX2                !
 ! R8    R(3,9)                  1.0857         estimate D2E/DX2                !
 ! R9    R(3,10)                 1.0839         estimate D2E/DX2                !
 ! A1    A(2,1,5)              109.9727         estimate D2E/DX2                !
 ! A2    A(2,1,6)              108.5766         estimate D2E/DX2                !
 ! A3    A(2,1,7)              109.4942         estimate D2E/DX2                !
 ! A4    A(5,1,6)              109.3676         estimate D2E/DX2                !
 ! A5    A(5,1,7)              110.0908         estimate D2E/DX2                !
 ! A6    A(6,1,7)              109.3131         estimate D2E/DX2                !
 ! A7    A(1,2,3)               94.6511         estimate D2E/DX2                !
 ! A8    A(1,2,4)              106.2133         estimate D2E/DX2                !
 ! A9    A(3,2,4)              108.1247         estimate D2E/DX2                !
 ! A10   A(2,3,8)              108.2549         estimate D2E/DX2                !
 ! A11   A(2,3,9)              105.7011         estimate D2E/DX2                !
 ! A12   A(2,3,10)             108.811          estimate D2E/DX2                !
 ! A13   A(8,3,9)              110.9332         estimate D2E/DX2                !
 ! A14   A(8,3,10)             111.8758         estimate D2E/DX2                !
 ! A15   A(9,3,10)             111.0139         estimate D2E/DX2                !
 ! D1    D(5,1,2,3)             58.4235         estimate D2E/DX2                !
 ! D2    D(5,1,2,4)            -51.9842         estimate D2E/DX2                !
 ! D3    D(6,1,2,3)            178.0528         estimate D2E/DX2                !
 ! D4    D(6,1,2,4)             67.6451         estimate D2E/DX2                !
 ! D5    D(7,1,2,3)            -62.6657         estimate D2E/DX2                !
 ! D6    D(7,1,2,4)           -173.0734         estimate D2E/DX2                !
 ! D7    D(1,2,3,8)             63.0194         estimate D2E/DX2                !
 ! D8    D(1,2,3,9)           -178.0652         estimate D2E/DX2                !
 ! D9    D(1,2,3,10)           -58.7727         estimate D2E/DX2                !
 ! D10   D(4,2,3,8)            171.7665         estimate D2E/DX2                !
 ! D11   D(4,2,3,9)            -69.3181         estimate D2E/DX2                !
 ! D12   D(4,2,3,10)            49.9744         estimate D2E/DX2                !
 --------------------------------------------------------------------------------
 Trust Radius=3.00D-01 FncErr=1.00D-07 GrdErr=1.00D-06
 Number of steps in this run=     46 maximum allowed number of steps=    100.
 GradGradGradGradGradGradGradGradGradGradGradGradGradGradGradGradGradGrad

 Leave Link  103 at Fri Mar 20 17:40:23 2026, MaxMem=   536870912 cpu:         0.0
 (Enter C:\G09W\l202.exe)
                          Input orientation:                          
 ---------------------------------------------------------------------
 Center     Atomic      Atomic             Coordinates (Angstroms)
 Number     Number       Type             X           Y           Z
 ---------------------------------------------------------------------
      1          6           0       -1.155631   -0.376124   -0.607962
      2         16           0        0.031349    1.013967   -0.363383
      3          6           0        1.305722   -0.022415    0.467899
      4          8           0       -0.585222    1.915634    0.670022
      5          1           0       -1.415563   -0.820879    0.359151
      6          1           0       -2.061544    0.017745   -1.082006
      7          1           0       -0.704042   -1.132245   -1.261045
      8          1           0        1.647765   -0.771804   -0.238121
      9          1           0        2.110104    0.657013    0.732477
     10          1           0        0.868795   -0.470788    1.352743
 ---------------------------------------------------------------------
                    Distance matrix (angstroms):
                    1          2          3          4          5
     1  C    0.000000
     2  S    1.844205   0.000000
     3  C    2.709399   1.840963   0.000000
     4  O    2.685287   1.503692   2.715245   0.000000
     5  H    1.095755   2.445868   2.838091   2.876562   0.000000
     6  H    1.095686   2.426742   3.707061   2.975082   1.788160
     7  H    1.096435   2.439841   2.874043   3.610084   1.796732
     8  H    2.855236   2.411943   1.084915   3.610163   3.121397
     9  H    3.678203   2.376878   1.085658   2.975367   3.841076
    10  H    2.819863   2.418864   1.083925   2.876679   2.515568
                    6          7          8          9         10
     6  H    0.000000
     7  H    1.788112   0.000000
     8  H    3.885164   2.589843   0.000000
     9  H    4.593872   3.885227   1.788110   0.000000
    10  H    3.841036   3.121415   1.796734   1.788159   0.000000
 Stoichiometry    C2H6OS
 Framework group  C1[X(C2H6OS)]
 Deg. of freedom    24
 Full point group                 C1      NOp   1
 Largest Abelian subgroup         C1      NOp   1
 Largest concise Abelian subgroup C1      NOp   1
                         Standard orientation:                         
 ---------------------------------------------------------------------
 Center     Atomic      Atomic             Coordinates (Angstroms)
 Number     Number       Type             X           Y           Z
 ---------------------------------------------------------------------
      1          6           0       -1.308592   -0.890012    0.172160
      2         16           0       -0.000667    0.254583   -0.444547
      3          6           0        1.397686   -0.761158    0.189506
      4          8           0       -0.097270    1.495806    0.398733
      5          1           0       -1.219932   -1.009447    1.257772
      6          1           0       -2.288335   -0.461993   -0.067492
      7          1           0       -1.206833   -1.862795   -0.323326
      8          1           0        1.379050   -1.719728   -0.318271
      9          1           0        2.298518   -0.208296   -0.058486
     10          1           0        1.291790   -0.870494    1.262691
 ---------------------------------------------------------------------
 Rotational constants (GHZ):      6.8219209      6.6831985      4.0849652
 Leave Link  202 at Fri Mar 20 17:40:23 2026, MaxMem=   536870912 cpu:         0.0
 (Enter C:\G09W\l301.exe)
 Standard basis: 6-31G(d) (6D, 7F)
 Ernie: Thresh=  0.10000D-02 Tol=  0.10000D-05 Strict=F.
 There are    76 symmetry adapted cartesian basis functions of A   symmetry.
 There are    76 symmetry adapted basis functions of A   symmetry.
    76 basis functions,   160 primitive gaussians,    76 cartesian basis functions
    21 alpha electrons       21 beta electrons
       nuclear repulsion energy       182.0023738658 Hartrees.
 IExCor=  402 DFT=T Ex+Corr=B3LYP ExCW=0 ScaHFX=  0.200000
 ScaDFX=  0.800000  0.720000  1.000000  0.810000 ScalE2=  1.000000  1.000000
 IRadAn=      0 IRanWt=     -1 IRanGd=            0 ICorTp=0 IEmpDi=  4
 NAtoms=   10 NActive=   10 NUniq=   10 SFac= 1.00D+00 NAtFMM=   60 NAOKFM=F Big=F
 Integral buffers will be    131072 words long.
 Raffenetti 2 integral format.
 Two-electron integral symmetry is turned on.
 Leave Link  301 at Fri Mar 20 17:40:23 2026, MaxMem=   536870912 cpu:         0.0
 (Enter C:\G09W\l302.exe)
 NPDir=0 NMtPBC=     1 NCelOv=     1 NCel=       1 NClECP=     1 NCelD=      1
         NCelK=      1 NCelE2=     1 NClLst=     1 CellRange=     0.0.
 One-electron integrals computed using PRISM.
 NBasis=    76 RedAO= T EigKep=  4.88D-03  NBF=    76
 NBsUse=    76 1.00D-06 EigRej= -1.00D+00 NBFU=    76
 Precomputing XC quadrature grid using
 IXCGrd= 4 IRadAn=           0 IRanWt=          -1 IRanGd=           0 AccXCQ= 0.00D+00.
 Generated NRdTot=       0 NPtTot=           0 NUsed=           0 NTot=          32
 NSgBfM=    76    76    76    76    76 MxSgAt=    10 MxSgA2=    10.
 Leave Link  302 at Fri Mar 20 17:40:24 2026, MaxMem=   536870912 cpu:         0.0
 (Enter C:\G09W\l303.exe)
 DipDrv:  MaxL=1.
 Leave Link  303 at Fri Mar 20 17:40:24 2026, MaxMem=   536870912 cpu:         0.0
 (Enter C:\G09W\l401.exe)
 ExpMin= 1.17D-01 ExpMax= 2.19D+04 ExpMxC= 3.30D+03 IAcc=1 IRadAn=         1 AccDes= 0.00D+00
 Harris functional with IExCor=  402 and IRadAn=       1 diagonalized for initial guess.
 HarFok:  IExCor=  402 AccDes= 0.00D+00 IRadAn=         1 IDoV= 1 UseB2=F ITyADJ=14
 ICtDFT=  3500011 ScaDFX=  1.000000  1.000000  1.000000  1.000000
 FoFCou: FMM=F IPFlag=           0 FMFlag=      100000 FMFlg1=           0
         NFxFlg=           0 DoJE=T BraDBF=F KetDBF=T FulRan=T
         wScrn=  0.000000 ICntrl=     500 IOpCl=  0 I1Cent=   200000004 NGrid=           0
         NMat0=    1 NMatS0=      1 NMatT0=    0 NMatD0=    1 NMtDS0=    0 NMtDT0=    0
 Petite list used in FoFCou.
 Harris En= -553.238855792201    
 JPrj=0 DoOrth=F DoCkMO=F.
 Leave Link  401 at Fri Mar 20 17:40:24 2026, MaxMem=   536870912 cpu:         0.0
 (Enter C:\G09W\l502.exe)
 Closed shell SCF:
 Using DIIS extrapolation, IDIIS=  1040.
 Integral symmetry usage will be decided dynamically.
 Keep R1 ints in memory in canonical form, NReq=5217272.
 IVT=       36915 IEndB=       36915 NGot=   536870912 MDV=   532551797
 LenX=   532551797 LenY=   532545580
 Requested convergence on RMS density matrix=1.00D-08 within 128 cycles.
 Requested convergence on MAX density matrix=1.00D-06.
 Requested convergence on             energy=1.00D-06.
 No special actions if energy rises.
 FoFCou: FMM=F IPFlag=           0 FMFlag=           0 FMFlg1=           0
         NFxFlg=           0 DoJE=F BraDBF=F KetDBF=F FulRan=T
         wScrn=  0.000000 ICntrl=     600 IOpCl=  0 I1Cent=           0 NGrid=           0
         NMat0=    1 NMatS0=   2926 NMatT0=    0 NMatD0=    1 NMtDS0=    0 NMtDT0=    0
 Symmetry not used in FoFCou.
 Integral accuracy reduced to 1.0D-05 until final iterations.

 Cycle   1  Pass 0  IDiag  1:
 E= -552.927159295033    
 DIIS: error= 5.01D-02 at cycle   1 NSaved=   1.
 NSaved= 1 IEnMin= 1 EnMin= -552.927159295033     IErMin= 1 ErrMin= 5.01D-02
 ErrMax= 5.01D-02  0.00D+00 EMaxC= 1.00D-01 BMatC= 2.94D-01 BMatP= 2.94D-01
 IDIUse=3 WtCom= 4.99D-01 WtEn= 5.01D-01
 Coeff-Com:  0.100D+01
 Coeff-En:   0.100D+01
 Coeff:      0.100D+01
 Gap=     0.242 Goal=   None    Shift=    0.000
 GapD=    0.242 DampG=1.000 DampE=0.500 DampFc=0.5000 IDamp=-1.
 Damping current iteration by 5.00D-01
 RMSDP=2.65D-02 MaxDP=3.68D-01              OVMax= 3.39D-01

 Cycle   2  Pass 0  IDiag  1:
 E= -552.942419173373     Delta-E=       -0.015259878340 Rises=F Damp=T
 DIIS: error= 3.49D-02 at cycle   2 NSaved=   2.
 NSaved= 2 IEnMin= 2 EnMin= -552.942419173373     IErMin= 2 ErrMin= 3.49D-02
 ErrMax= 3.49D-02  0.00D+00 EMaxC= 1.00D-01 BMatC= 7.37D-02 BMatP= 2.94D-01
 IDIUse=3 WtCom= 6.51D-01 WtEn= 3.49D-01
 Coeff-Com:  0.301D+00 0.699D+00
 Coeff-En:   0.476D+00 0.524D+00
 Coeff:      0.362D+00 0.638D+00
 Gap=     0.261 Goal=   None    Shift=    0.000
 RMSDP=1.02D-02 MaxDP=1.70D-01 DE=-1.53D-02 OVMax= 2.69D-01

 Cycle   3  Pass 0  IDiag  1:
 E= -553.137354231247     Delta-E=       -0.194935057874 Rises=F Damp=F
 DIIS: error= 2.32D-02 at cycle   3 NSaved=   3.
 NSaved= 3 IEnMin= 3 EnMin= -553.137354231247     IErMin= 3 ErrMin= 2.32D-02
 ErrMax= 2.32D-02  0.00D+00 EMaxC= 1.00D-01 BMatC= 4.83D-02 BMatP= 7.37D-02
 IDIUse=3 WtCom= 7.68D-01 WtEn= 2.32D-01
 Coeff-Com:  0.168D+00 0.429D+00 0.403D+00
 Coeff-En:   0.000D+00 0.000D+00 0.100D+01
 Coeff:      0.129D+00 0.329D+00 0.542D+00
 Gap=     0.266 Goal=   None    Shift=    0.000
 RMSDP=5.32D-03 MaxDP=6.84D-02 DE=-1.95D-01 OVMax= 9.78D-02

 Cycle   4  Pass 0  IDiag  1:
 E= -553.175715014616     Delta-E=       -0.038360783369 Rises=F Damp=F
 DIIS: error= 9.76D-03 at cycle   4 NSaved=   4.
 NSaved= 4 IEnMin= 4 EnMin= -553.175715014616     IErMin= 4 ErrMin= 9.76D-03
 ErrMax= 9.76D-03  0.00D+00 EMaxC= 1.00D-01 BMatC= 1.13D-02 BMatP= 4.83D-02
 IDIUse=3 WtCom= 9.02D-01 WtEn= 9.76D-02
 Coeff-Com:  0.254D-01 0.236D-01 0.322D+00 0.629D+00
 Coeff-En:   0.000D+00 0.000D+00 0.209D+00 0.791D+00
 Coeff:      0.229D-01 0.213D-01 0.311D+00 0.645D+00
 Gap=     0.263 Goal=   None    Shift=    0.000
 RMSDP=2.00D-03 MaxDP=3.05D-02 DE=-3.84D-02 OVMax= 3.55D-02

 Cycle   5  Pass 0  IDiag  1:
 E= -553.186138230182     Delta-E=       -0.010423215566 Rises=F Damp=F
 DIIS: error= 8.41D-04 at cycle   5 NSaved=   5.
 NSaved= 5 IEnMin= 5 EnMin= -553.186138230182     IErMin= 5 ErrMin= 8.41D-04
 ErrMax= 8.41D-04  0.00D+00 EMaxC= 1.00D-01 BMatC= 1.04D-04 BMatP= 1.13D-02
 IDIUse=3 WtCom= 9.92D-01 WtEn= 8.41D-03
 Coeff-Com:  0.513D-03-0.720D-02 0.789D-01 0.220D+00 0.708D+00
 Coeff-En:   0.000D+00 0.000D+00 0.000D+00 0.000D+00 0.100D+01
 Coeff:      0.509D-03-0.714D-02 0.783D-01 0.218D+00 0.710D+00
 Gap=     0.262 Goal=   None    Shift=    0.000
 RMSDP=2.39D-04 MaxDP=3.42D-03 DE=-1.04D-02 OVMax= 3.25D-03

 Cycle   6  Pass 0  IDiag  1:
 E= -553.186238418386     Delta-E=       -0.000100188205 Rises=F Damp=F
 DIIS: error= 1.69D-04 at cycle   6 NSaved=   6.
 NSaved= 6 IEnMin= 6 EnMin= -553.186238418386     IErMin= 6 ErrMin= 1.69D-04
 ErrMax= 1.69D-04  0.00D+00 EMaxC= 1.00D-01 BMatC= 3.49D-06 BMatP= 1.04D-04
 IDIUse=3 WtCom= 9.98D-01 WtEn= 1.69D-03
 Coeff-Com: -0.136D-03-0.316D-02 0.106D-01 0.318D-01 0.199D+00 0.762D+00
 Coeff-En:   0.000D+00 0.000D+00 0.000D+00 0.000D+00 0.000D+00 0.100D+01
 Coeff:     -0.136D-03-0.316D-02 0.105D-01 0.318D-01 0.198D+00 0.763D+00
 Gap=     0.263 Goal=   None    Shift=    0.000
 RMSDP=5.58D-05 MaxDP=9.84D-04 DE=-1.00D-04 OVMax= 8.35D-04

 Cycle   7  Pass 0  IDiag  1:
 E= -553.186241885873     Delta-E=       -0.000003467487 Rises=F Damp=F
 DIIS: error= 3.49D-05 at cycle   7 NSaved=   7.
 NSaved= 7 IEnMin= 7 EnMin= -553.186241885873     IErMin= 7 ErrMin= 3.49D-05
 ErrMax= 3.49D-05  0.00D+00 EMaxC= 1.00D-01 BMatC= 2.67D-07 BMatP= 3.49D-06
 IDIUse=1 WtCom= 1.00D+00 WtEn= 0.00D+00
 Coeff-Com:  0.529D-04-0.828D-03 0.417D-03 0.136D-02 0.432D-01 0.322D+00
 Coeff-Com:  0.634D+00
 Coeff:      0.529D-04-0.828D-03 0.417D-03 0.136D-02 0.432D-01 0.322D+00
 Coeff:      0.634D+00
 Gap=     0.263 Goal=   None    Shift=    0.000
 RMSDP=9.71D-06 MaxDP=2.46D-04 DE=-3.47D-06 OVMax= 1.32D-04

 Initial convergence to 1.0D-05 achieved.  Increase integral accuracy.
 Cycle   8  Pass 1  IDiag  1:
 E= -553.186285438400     Delta-E=       -0.000043552526 Rises=F Damp=F
 DIIS: error= 1.24D-05 at cycle   1 NSaved=   1.
 NSaved= 1 IEnMin= 1 EnMin= -553.186285438400     IErMin= 1 ErrMin= 1.24D-05
 ErrMax= 1.24D-05  0.00D+00 EMaxC= 1.00D-01 BMatC= 2.99D-08 BMatP= 2.99D-08
 IDIUse=1 WtCom= 1.00D+00 WtEn= 0.00D+00
 Coeff-Com:  0.100D+01
 Coeff:      0.100D+01
 Gap=     0.263 Goal=   None    Shift=    0.000
 RMSDP=9.71D-06 MaxDP=2.46D-04 DE=-4.36D-05 OVMax= 8.71D-05

 Cycle   9  Pass 1  IDiag  1:
 E= -553.186285439972     Delta-E=       -0.000000001573 Rises=F Damp=F
 DIIS: error= 1.45D-05 at cycle   2 NSaved=   2.
 NSaved= 2 IEnMin= 2 EnMin= -553.186285439972     IErMin= 1 ErrMin= 1.24D-05
 ErrMax= 1.45D-05  0.00D+00 EMaxC= 1.00D-01 BMatC= 3.64D-08 BMatP= 2.99D-08
 IDIUse=1 WtCom= 1.00D+00 WtEn= 0.00D+00
 Coeff-Com:  0.530D+00 0.470D+00
 Coeff:      0.530D+00 0.470D+00
 Gap=     0.263 Goal=   None    Shift=    0.000
 RMSDP=3.79D-06 MaxDP=5.17D-05 DE=-1.57D-09 OVMax= 6.95D-05

 Cycle  10  Pass 1  IDiag  1:
 E= -553.186285471391     Delta-E=       -0.000000031419 Rises=F Damp=F
 DIIS: error= 7.83D-06 at cycle   3 NSaved=   3.
 NSaved= 3 IEnMin= 3 EnMin= -553.186285471391     IErMin= 3 ErrMin= 7.83D-06
 ErrMax= 7.83D-06  0.00D+00 EMaxC= 1.00D-01 BMatC= 4.86D-09 BMatP= 2.99D-08
 IDIUse=1 WtCom= 1.00D+00 WtEn= 0.00D+00
 Coeff-Com:  0.104D+00 0.268D+00 0.628D+00
 Coeff:      0.104D+00 0.268D+00 0.628D+00
 Gap=     0.263 Goal=   None    Shift=    0.000
 RMSDP=1.82D-06 MaxDP=2.77D-05 DE=-3.14D-08 OVMax= 3.02D-05

 Cycle  11  Pass 1  IDiag  1:
 E= -553.186285473996     Delta-E=       -0.000000002605 Rises=F Damp=F
 DIIS: error= 4.04D-06 at cycle   4 NSaved=   4.
 NSaved= 4 IEnMin= 4 EnMin= -553.186285473996     IErMin= 4 ErrMin= 4.04D-06
 ErrMax= 4.04D-06  0.00D+00 EMaxC= 1.00D-01 BMatC= 1.65D-09 BMatP= 4.86D-09
 IDIUse=1 WtCom= 1.00D+00 WtEn= 0.00D+00
 Coeff-Com: -0.936D-02 0.118D+00 0.440D+00 0.452D+00
 Coeff:     -0.936D-02 0.118D+00 0.440D+00 0.452D+00
 Gap=     0.263 Goal=   None    Shift=    0.000
 RMSDP=6.77D-07 MaxDP=9.37D-06 DE=-2.60D-09 OVMax= 1.24D-05

 Cycle  12  Pass 1  IDiag  1:
 E= -553.186285475419     Delta-E=       -0.000000001423 Rises=F Damp=F
 DIIS: error= 3.31D-07 at cycle   5 NSaved=   5.
 NSaved= 5 IEnMin= 5 EnMin= -553.186285475419     IErMin= 5 ErrMin= 3.31D-07
 ErrMax= 3.31D-07  0.00D+00 EMaxC= 1.00D-01 BMatC= 1.18D-11 BMatP= 1.65D-09
 IDIUse=1 WtCom= 1.00D+00 WtEn= 0.00D+00
 Coeff-Com: -0.728D-02 0.306D-01 0.125D+00 0.166D+00 0.686D+00
 Coeff:     -0.728D-02 0.306D-01 0.125D+00 0.166D+00 0.686D+00
 Gap=     0.263 Goal=   None    Shift=    0.000
 RMSDP=6.29D-08 MaxDP=1.54D-06 DE=-1.42D-09 OVMax= 8.32D-07

 Cycle  13  Pass 1  IDiag  1:
 E= -553.186285475431     Delta-E=       -0.000000000012 Rises=F Damp=F
 DIIS: error= 5.57D-08 at cycle   6 NSaved=   6.
 NSaved= 6 IEnMin= 6 EnMin= -553.186285475431     IErMin= 6 ErrMin= 5.57D-08
 ErrMax= 5.57D-08  0.00D+00 EMaxC= 1.00D-01 BMatC= 4.69D-13 BMatP= 1.18D-11
 IDIUse=1 WtCom= 1.00D+00 WtEn= 0.00D+00
 Coeff-Com: -0.197D-02 0.558D-02 0.231D-01 0.399D-01 0.234D+00 0.699D+00
 Coeff:     -0.197D-02 0.558D-02 0.231D-01 0.399D-01 0.234D+00 0.699D+00
 Gap=     0.263 Goal=   None    Shift=    0.000
 RMSDP=1.60D-08 MaxDP=2.27D-07 DE=-1.21D-11 OVMax= 1.96D-07

 Cycle  14  Pass 1  IDiag  1:
 E= -553.186285475443     Delta-E=       -0.000000000011 Rises=F Damp=F
 DIIS: error= 1.86D-08 at cycle   7 NSaved=   7.
 NSaved= 7 IEnMin= 7 EnMin= -553.186285475443     IErMin= 7 ErrMin= 1.86D-08
 ErrMax= 1.86D-08  0.00D+00 EMaxC= 1.00D-01 BMatC= 3.64D-14 BMatP= 4.69D-13
 IDIUse=1 WtCom= 1.00D+00 WtEn= 0.00D+00
 Coeff-Com: -0.297D-04-0.817D-03-0.332D-02-0.447D-03 0.196D-01 0.238D+00
 Coeff-Com:  0.747D+00
 Coeff:     -0.297D-04-0.817D-03-0.332D-02-0.447D-03 0.196D-01 0.238D+00
 Coeff:      0.747D+00
 Gap=     0.263 Goal=   None    Shift=    0.000
 RMSDP=3.46D-09 MaxDP=4.52D-08 DE=-1.15D-11 OVMax= 7.15D-08

 SCF Done:  E(RB3LYP) =  -553.186285475     A.U. after   14 cycles
            NFock= 14  Conv=0.35D-08     -V/T= 2.0050
 KE= 5.504403485588D+02 PE=-1.671358516785D+03 EE= 3.857295088846D+02
 Leave Link  502 at Fri Mar 20 17:40:29 2026, MaxMem=   536870912 cpu:         4.0
 (Enter C:\G09W\l601.exe)
 Copying SCF densities to generalized density rwf, IOpCl= 0 IROHF=0.

 **********************************************************************

            Population analysis using the SCF density.

 **********************************************************************

 Orbital symmetries:
       Occupied  (A) (A) (A) (A) (A) (A) (A) (A) (A) (A) (A) (A)
                 (A) (A) (A) (A) (A) (A) (A) (A) (A)
       Virtual   (A) (A) (A) (A) (A) (A) (A) (A) (A) (A) (A) (A)
                 (A) (A) (A) (A) (A) (A) (A) (A) (A) (A) (A) (A)
                 (A) (A) (A) (A) (A) (A) (A) (A) (A) (A) (A) (A)
                 (A) (A) (A) (A) (A) (A) (A) (A) (A) (A) (A) (A)
                 (A) (A) (A) (A) (A) (A) (A)
 The electronic state is 1-A.
 Alpha  occ. eigenvalues --  -88.98529 -19.09908 -10.21288 -10.21188  -8.03236
 Alpha  occ. eigenvalues --   -5.99633  -5.99555  -5.98971  -1.00049  -0.78761
 Alpha  occ. eigenvalues --   -0.71920  -0.60381  -0.46672  -0.45924  -0.45242
 Alpha  occ. eigenvalues --   -0.42546  -0.39840  -0.39138  -0.35241  -0.25986
 Alpha  occ. eigenvalues --   -0.22346
 Alpha virt. eigenvalues --    0.03921   0.04933   0.07896   0.09963   0.12183
 Alpha virt. eigenvalues --    0.13761   0.14912   0.16632   0.17998   0.33597
 Alpha virt. eigenvalues --    0.35998   0.42605   0.43430   0.47665   0.50952
 Alpha virt. eigenvalues --    0.55793   0.56809   0.61679   0.74098   0.77788
 Alpha virt. eigenvalues --    0.79583   0.81663   0.84486   0.85219   0.88569
 Alpha virt. eigenvalues --    0.89346   0.90060   0.90998   0.92954   0.99662
 Alpha virt. eigenvalues --    1.06988   1.08575   1.16012   1.22478   1.32232
 Alpha virt. eigenvalues --    1.50585   1.64791   1.67502   1.72258   1.76163
 Alpha virt. eigenvalues --    1.86370   1.87713   2.05447   2.07085   2.10095
 Alpha virt. eigenvalues --    2.16627   2.20678   2.22398   2.24362   2.26120
 Alpha virt. eigenvalues --    2.76777   3.82006   3.91441   4.18893   4.20316
          Condensed to atoms (all electrons):
               1          2          3          4          5          6
     1  C    5.622435   0.037665   0.001414  -0.052062   0.345950   0.371938
     2  S    0.037665  14.910683   0.020198   0.344247  -0.006803  -0.029172
     3  C    0.001414   0.020198   5.632226  -0.049192  -0.014636   0.004074
     4  O   -0.052062   0.344247  -0.049192   8.370307   0.002141   0.000936
     5  H    0.345950  -0.006803  -0.014636   0.002141   0.522338  -0.026003
     6  H    0.371938  -0.029172   0.004074   0.000936  -0.026003   0.504962
     7  H    0.310881   0.005489  -0.001266   0.001963  -0.022875  -0.023152
     8  H   -0.001032   0.005027   0.316189   0.001807   0.000483  -0.000091
     9  H    0.004301  -0.032559   0.372812   0.001044  -0.000034  -0.000077
    10  H   -0.014956  -0.005485   0.344659   0.002290   0.007234  -0.000059
               7          8          9         10
     1  C    0.310881  -0.001032   0.004301  -0.014956
     2  S    0.005489   0.005027  -0.032559  -0.005485
     3  C   -0.001266   0.316189   0.372812   0.344659
     4  O    0.001963   0.001807   0.001044   0.002290
     5  H   -0.022875   0.000483  -0.000034   0.007234
     6  H   -0.023152  -0.000091  -0.000077  -0.000059
     7  H    0.559494   0.000343  -0.000093   0.000554
     8  H    0.000343   0.546005  -0.021700  -0.021613
     9  H   -0.000093  -0.021700   0.503030  -0.024605
    10  H    0.000554  -0.021613  -0.024605   0.516173
 Mulliken charges:
               1
     1  C   -0.626535
     2  S    0.750711
     3  C   -0.626478
     4  O   -0.623481
     5  H    0.192206
     6  H    0.196644
     7  H    0.168662
     8  H    0.174583
     9  H    0.197882
    10  H    0.195807
 Sum of Mulliken charges =   0.00000
 Mulliken charges with hydrogens summed into heavy atoms:
               1
     1  C   -0.069023
     2  S    0.750711
     3  C   -0.058206
     4  O   -0.623481
 Electronic spatial extent (au):  <R**2>=            368.4765
 Charge=              0.0000 electrons
 Dipole moment (field-independent basis, Debye):
    X=              0.2672    Y=             -3.8174    Z=             -0.6049  Tot=              3.8743
 Quadrupole moment (field-independent basis, Debye-Ang):
   XX=            -28.6534   YY=            -36.0272   ZZ=            -32.5072
   XY=              0.5019   XZ=              0.0592   YZ=             -1.5839
 Traceless Quadrupole moment (field-independent basis, Debye-Ang):
   XX=              3.7425   YY=             -3.6313   ZZ=             -0.1113
   XY=              0.5019   XZ=              0.0592   YZ=             -1.5839
 Octapole moment (field-independent basis, Debye-Ang**2):
  XXX=             -0.5660  YYY=             -5.1591  ZZZ=              3.4065  XYY=              0.6051
  XXY=              2.1432  XXZ=             -1.1135  XZZ=              0.0095  YZZ=              0.0811
  YYZ=             -3.2808  XYZ=              0.2173
 Hexadecapole moment (field-independent basis, Debye-Ang**3):
 XXXX=           -205.8475 YYYY=           -199.8752 ZZZZ=            -70.0130 XXXY=              1.0381
 XXXZ=             -0.3611 YYYX=             -0.1364 YYYZ=              1.9386 ZZZX=             -0.0053
 ZZZY=             -0.5891 XXYY=            -69.5991 XXZZ=            -48.3002 YYZZ=            -43.2895
 XXYZ=              0.4196 YYXZ=             -0.2000 ZZXY=             -0.1541
 N-N= 1.820023738658D+02 E-N=-1.671358519043D+03  KE= 5.504403485588D+02
 No NMR shielding tensors so no spin-rotation constants.
 Leave Link  601 at Fri Mar 20 17:40:29 2026, MaxMem=   536870912 cpu:         0.0
 (Enter C:\G09W\l701.exe)
 Compute integral first derivatives.
 ... and contract with generalized density number  0.
 Leave Link  701 at Fri Mar 20 17:40:30 2026, MaxMem=   536870912 cpu:         1.0
 (Enter C:\G09W\l702.exe)
 L702 exits ... SP integral derivatives will be done elsewhere.
 Leave Link  702 at Fri Mar 20 17:40:30 2026, MaxMem=   536870912 cpu:         0.0
 (Enter C:\G09W\l703.exe)
 Compute integral first derivatives, UseDBF=F ICtDFT=           0.
 Integral derivatives from FoFJK, PRISM(SPDF).
 Calling FoFJK, ICntrl=      2127 FMM=F ISym2X=0 I1Cent= 0 IOpClX= 0 NMat=1 NMatS=1 NMatT=0.
 FoFJK:  IHMeth= 1 ICntrl=    2127 DoSepK=F KAlg= 0 I1Cent=   0 FoldK=F
 IRaf=         0 NMat=   1 IRICut=       1 DoRegI=T DoRafI=F ISym2E= 0.
 FoFCou: FMM=F IPFlag=           0 FMFlag=      100000 FMFlg1=         800
         NFxFlg=           0 DoJE=F BraDBF=F KetDBF=F FulRan=T
         wScrn=  0.000000 ICntrl=    2127 IOpCl=  0 I1Cent=           0 NGrid=           0
         NMat0=    1 NMatS0=      1 NMatT0=    0 NMatD0=    1 NMtDS0=    0 NMtDT0=    0
 Symmetry not used in FoFCou.
 Leave Link  703 at Fri Mar 20 17:40:31 2026, MaxMem=   536870912 cpu:         1.0
 (Enter C:\G09W\l716.exe)
 Dipole        = 1.05131495D-01-1.50188697D+00-2.37993248D-01
 ***** Axes restored to original set *****
 -------------------------------------------------------------------
 Center     Atomic                   Forces (Hartrees/Bohr)
 Number     Number              X              Y              Z
 -------------------------------------------------------------------
      1        6           0.000368001   -0.002902377   -0.004137099
      2       16          -0.005117857   -0.008100633   -0.002350817
      3        6          -0.005077965    0.008007204   -0.005730480
      4        8          -0.000507185    0.006546798    0.004826207
      5        1           0.000824478    0.002036216   -0.000083460
      6        1           0.002389253    0.001131084    0.001169081
      7        1          -0.000765893    0.000502329    0.000100486
      8        1           0.003934783   -0.004797796   -0.002228065
      9        1           0.004840107    0.000412565    0.002697610
     10        1          -0.000887721   -0.002835390    0.005736538
 -------------------------------------------------------------------
 Cartesian Forces:  Max     0.008100633 RMS     0.003839596
 Leave Link  716 at Fri Mar 20 17:40:31 2026, MaxMem=   536870912 cpu:         0.0
 (Enter C:\G09W\l103.exe)

 GradGradGradGradGradGradGradGradGradGradGradGradGradGradGradGradGradGrad
 Berny optimization.
 FormGI is forming the generalized inverse of G from B-inverse, IUseBI=4.
 Internal  Forces:  Max     0.007450051 RMS     0.002812377
 Search for a local minimum.
 Step number   1 out of a maximum of   46
 All quantities printed in internal units (Hartrees-Bohrs-Radians)
 RMS Force = .28124D-02 SwitMx=.10000D-02 MixMth= 1
 Mixed Optimization -- RFO/linear search
 Second derivative matrix not updated -- first step.
 ITU=  0
     Eigenvalues ---    0.00230   0.00230   0.06804   0.07168   0.07355
     Eigenvalues ---    0.07420   0.07791   0.11844   0.16000   0.16000
     Eigenvalues ---    0.16000   0.16000   0.16000   0.16000   0.22922
     Eigenvalues ---    0.23138   0.25000   0.34079   0.34156   0.34164
     Eigenvalues ---    0.35319   0.35407   0.35524   0.75467
 RFO step:  Lambda=-1.36154619D-03 EMin= 2.30000000D-03
 Linear search not attempted -- first point.
 Iteration  1 RMS(Cart)=  0.02595056 RMS(Int)=  0.00043369
 Iteration  2 RMS(Cart)=  0.00044839 RMS(Int)=  0.00021024
 Iteration  3 RMS(Cart)=  0.00000010 RMS(Int)=  0.00021024
 ITry= 1 IFail=0 DXMaxC= 7.17D-02 DCOld= 1.00D+10 DXMaxT= 3.00D-01 DXLimC= 3.00D+00 Rises=F
 Variable       Old X    -DE/DX   Delta X   Delta X   Delta X     New X
                                 (Linear)    (Quad)   (Total)
    R1        3.48504  -0.00200   0.00000  -0.00869  -0.00869   3.47636
    R2        2.07068  -0.00109   0.00000  -0.00319  -0.00319   2.06748
    R3        2.07055  -0.00207   0.00000  -0.00604  -0.00604   2.06450
    R4        2.07196  -0.00072   0.00000  -0.00212  -0.00212   2.06984
    R5        3.47892   0.00172   0.00000   0.00739   0.00739   3.48631
    R6        2.84157   0.00745   0.00000   0.00985   0.00985   2.85142
    R7        2.05019   0.00601   0.00000   0.01690   0.01690   2.06709
    R8        2.05160   0.00450   0.00000   0.01269   0.01269   2.06429
    R9        2.04832   0.00621   0.00000   0.01742   0.01742   2.06574
    A1        1.91939  -0.00237   0.00000  -0.01525  -0.01537   1.90401
    A2        1.89502  -0.00296   0.00000  -0.02103  -0.02115   1.87387
    A3        1.91103   0.00177   0.00000   0.01425   0.01429   1.92533
    A4        1.90882   0.00151   0.00000   0.00270   0.00239   1.91121
    A5        1.92145   0.00118   0.00000   0.01253   0.01256   1.93400
    A6        1.90787   0.00083   0.00000   0.00644   0.00651   1.91438
    A7        1.65197   0.00391   0.00000   0.02461   0.02433   1.67631
    A8        1.85377   0.00265   0.00000   0.03532   0.03519   1.88896
    A9        1.88713  -0.00146   0.00000   0.00023  -0.00057   1.88657
   A10        1.88941   0.00322   0.00000   0.02119   0.02098   1.91038
   A11        1.84483   0.00398   0.00000   0.02406   0.02387   1.86870
   A12        1.89911   0.00117   0.00000   0.00669   0.00658   1.90569
   A13        1.93615  -0.00293   0.00000  -0.01677  -0.01709   1.91906
   A14        1.95260  -0.00198   0.00000  -0.01106  -0.01119   1.94141
   A15        1.93756  -0.00286   0.00000  -0.02037  -0.02046   1.91710
    D1        1.01968   0.00094   0.00000   0.00979   0.00990   1.02958
    D2       -0.90729   0.00064   0.00000  -0.00573  -0.00612  -0.91342
    D3        3.10761  -0.00043   0.00000  -0.00878  -0.00838   3.09923
    D4        1.18063  -0.00074   0.00000  -0.02430  -0.02440   1.15623
    D5       -1.09372  -0.00015   0.00000  -0.00516  -0.00493  -1.09865
    D6       -3.02070  -0.00045   0.00000  -0.02068  -0.02094  -3.04164
    D7        1.09990  -0.00194   0.00000  -0.00154  -0.00161   1.09829
    D8       -3.10782  -0.00163   0.00000   0.00236   0.00247  -3.10535
    D9       -1.02578  -0.00220   0.00000  -0.00494  -0.00493  -1.03071
   D10        2.99789   0.00206   0.00000   0.04550   0.04540   3.04329
   D11       -1.20983   0.00238   0.00000   0.04940   0.04948  -1.16035
   D12        0.87222   0.00181   0.00000   0.04210   0.04208   0.91429
         Item               Value     Threshold  Converged?
 Maximum Force            0.007450     0.000450     NO 
 RMS     Force            0.002812     0.000300     NO 
 Maximum Displacement     0.071699     0.001800     NO 
 RMS     Displacement     0.025727     0.001200     NO 
 Predicted change in Energy=-6.917266D-04
 Lowest energy point so far.  Saving SCF results.
 GradGradGradGradGradGradGradGradGradGradGradGradGradGradGradGradGradGrad

 Leave Link  103 at Fri Mar 20 17:40:32 2026, MaxMem=   536870912 cpu:         0.0
 (Enter C:\G09W\l202.exe)
                          Input orientation:                          
 ---------------------------------------------------------------------
 Center     Atomic      Atomic             Coordinates (Angstroms)
 Number     Number       Type             X           Y           Z
 ---------------------------------------------------------------------
      1          6           0       -1.172093   -0.388254   -0.619238
      2         16           0        0.011286    0.995972   -0.359056
      3          6           0        1.313506   -0.014789    0.469283
      4          8           0       -0.577108    1.933558    0.666382
      5          1           0       -1.430606   -0.825004    0.349988
      6          1           0       -2.068759    0.031757   -1.080877
      7          1           0       -0.734837   -1.142839   -1.281901
      8          1           0        1.685706   -0.771374   -0.227548
      9          1           0        2.121075    0.666923    0.745662
     10          1           0        0.893563   -0.475845    1.367080
 ---------------------------------------------------------------------
                    Distance matrix (angstroms):
                    1          2          3          4          5
     1  C    0.000000
     2  S    1.839609   0.000000
     3  C    2.739080   1.844874   0.000000
     4  O    2.719860   1.508906   2.722008   0.000000
     5  H    1.094066   2.428529   2.863710   2.904864   0.000000
     6  H    1.092488   2.403607   3.720871   2.982413   1.785680
     7  H    1.095314   2.445988   2.921447   3.644846   1.802269
     8  H    2.909848   2.438132   1.093860   3.638145   3.169831
     9  H    3.717702   2.404140   1.092375   2.981752   3.872576
    10  H    2.867065   2.433968   1.093144   2.908449   2.560888
                    6          7          8          9         10
     6  H    0.000000
     7  H    1.788696   0.000000
     8  H    3.933090   2.666210   0.000000
     9  H    4.614585   3.942396   1.790358   0.000000
    10  H    3.876274   3.180199   1.804901   1.788537   0.000000
 Stoichiometry    C2H6OS
 Framework group  C1[X(C2H6OS)]
 Deg. of freedom    24
 Full point group                 C1      NOp   1
 RotChk:  IX=0 Diff= 7.39D-02
 Largest Abelian subgroup         C1      NOp   1
 Largest concise Abelian subgroup C1      NOp   1
                         Standard orientation:                         
 ---------------------------------------------------------------------
 Center     Atomic      Atomic             Coordinates (Angstroms)
 Number     Number       Type             X           Y           Z
 ---------------------------------------------------------------------
      1          6           0       -1.366365   -0.828409    0.176950
      2         16           0       -0.001772    0.244418   -0.432222
      3          6           0        1.372712   -0.824577    0.177371
      4          8           0       -0.002268    1.515840    0.380356
      5          1           0       -1.275338   -0.942107    1.261278
      6          1           0       -2.306910   -0.325366   -0.059382
      7          1           0       -1.334364   -1.803655   -0.320628
      8          1           0        1.331819   -1.793988   -0.327703
      9          1           0        2.307657   -0.315616   -0.067822
     10          1           0        1.285548   -0.938749    1.261037
 ---------------------------------------------------------------------
 Rotational constants (GHZ):      6.7360484      6.6912063      4.0184585
 Leave Link  202 at Fri Mar 20 17:40:32 2026, MaxMem=   536870912 cpu:         0.0
 (Enter C:\G09W\l301.exe)
 Standard basis: 6-31G(d) (6D, 7F)
 Ernie: Thresh=  0.10000D-02 Tol=  0.10000D-05 Strict=F.
 There are    76 symmetry adapted cartesian basis functions of A   symmetry.
 There are    76 symmetry adapted basis functions of A   symmetry.
    76 basis functions,   160 primitive gaussians,    76 cartesian basis functions
    21 alpha electrons       21 beta electrons
       nuclear repulsion energy       181.3753745206 Hartrees.
 IExCor=  402 DFT=T Ex+Corr=B3LYP ExCW=0 ScaHFX=  0.200000
 ScaDFX=  0.800000  0.720000  1.000000  0.810000 ScalE2=  1.000000  1.000000
 IRadAn=      0 IRanWt=     -1 IRanGd=            0 ICorTp=0 IEmpDi=  4
 NAtoms=   10 NActive=   10 NUniq=   10 SFac= 1.00D+00 NAtFMM=   60 NAOKFM=F Big=F
 Integral buffers will be    131072 words long.
 Raffenetti 2 integral format.
 Two-electron integral symmetry is turned on.
 Leave Link  301 at Fri Mar 20 17:40:32 2026, MaxMem=   536870912 cpu:         0.0
 (Enter C:\G09W\l302.exe)
 NPDir=0 NMtPBC=     1 NCelOv=     1 NCel=       1 NClECP=     1 NCelD=      1
         NCelK=      1 NCelE2=     1 NClLst=     1 CellRange=     0.0.
 One-electron integrals computed using PRISM.
 NBasis=    76 RedAO= T EigKep=  5.15D-03  NBF=    76
 NBsUse=    76 1.00D-06 EigRej= -1.00D+00 NBFU=    76
 Precomputing XC quadrature grid using
 IXCGrd= 4 IRadAn=           0 IRanWt=          -1 IRanGd=           0 AccXCQ= 0.00D+00.
 Generated NRdTot=       0 NPtTot=           0 NUsed=           0 NTot=          32
 NSgBfM=    76    76    76    76    76 MxSgAt=    10 MxSgA2=    10.
 Leave Link  302 at Fri Mar 20 17:40:32 2026, MaxMem=   536870912 cpu:         0.0
 (Enter C:\G09W\l303.exe)
 DipDrv:  MaxL=1.
 Leave Link  303 at Fri Mar 20 17:40:32 2026, MaxMem=   536870912 cpu:         0.0
 (Enter C:\G09W\l401.exe)
 Initial guess from the checkpoint file:  "dimethylsulfoxide_ml.chk"
 B after Tr=     0.000000    0.000000    0.000000
         Rot=    0.999656    0.002970   -0.004097    0.025732 Ang=   3.01 deg.
 Guess basis will be translated and rotated to current coordinates.
 JPrj=2 DoOrth=T DoCkMO=T.
 Generating alternative initial guess.
 ExpMin= 1.17D-01 ExpMax= 2.19D+04 ExpMxC= 3.30D+03 IAcc=1 IRadAn=         1 AccDes= 0.00D+00
 Harris functional with IExCor=  402 and IRadAn=       1 diagonalized for initial guess.
 HarFok:  IExCor=  402 AccDes= 0.00D+00 IRadAn=         1 IDoV= 1 UseB2=F ITyADJ=14
 ICtDFT=  3500011 ScaDFX=  1.000000  1.000000  1.000000  1.000000
 FoFCou: FMM=F IPFlag=           0 FMFlag=      100000 FMFlg1=           0
         NFxFlg=           0 DoJE=T BraDBF=F KetDBF=T FulRan=T
         wScrn=  0.000000 ICntrl=     500 IOpCl=  0 I1Cent=   200000004 NGrid=           0
         NMat0=    1 NMatS0=      1 NMatT0=    0 NMatD0=    1 NMtDS0=    0 NMtDT0=    0
 Petite list used in FoFCou.
 Harris En= -553.237066932590    
 Leave Link  401 at Fri Mar 20 17:40:33 2026, MaxMem=   536870912 cpu:         0.0
 (Enter C:\G09W\l502.exe)
 Closed shell SCF:
 Using DIIS extrapolation, IDIIS=  1040.
 Integral symmetry usage will be decided dynamically.
 Keep R1 ints in memory in canonical form, NReq=5217272.
 IVT=       36915 IEndB=       36915 NGot=   536870912 MDV=   532551797
 LenX=   532551797 LenY=   532545580
 Requested convergence on RMS density matrix=1.00D-08 within 128 cycles.
 Requested convergence on MAX density matrix=1.00D-06.
 Requested convergence on             energy=1.00D-06.
 No special actions if energy rises.
 FoFCou: FMM=F IPFlag=           0 FMFlag=           0 FMFlg1=           0
         NFxFlg=           0 DoJE=F BraDBF=F KetDBF=F FulRan=T
         wScrn=  0.000000 ICntrl=     600 IOpCl=  0 I1Cent=           0 NGrid=           0
         NMat0=    1 NMatS0=   2926 NMatT0=    0 NMatD0=    1 NMtDS0=    0 NMtDT0=    0
 Symmetry not used in FoFCou.
 Integral accuracy reduced to 1.0D-05 until final iterations.

 Cycle   1  Pass 0  IDiag  1:
 E= -553.185980603786    
 DIIS: error= 1.47D-03 at cycle   1 NSaved=   1.
 NSaved= 1 IEnMin= 1 EnMin= -553.185980603786     IErMin= 1 ErrMin= 1.47D-03
 ErrMax= 1.47D-03  0.00D+00 EMaxC= 1.00D-01 BMatC= 4.15D-04 BMatP= 4.15D-04
 IDIUse=3 WtCom= 9.85D-01 WtEn= 1.47D-02
 Coeff-Com:  0.100D+01
 Coeff-En:   0.100D+01
 Coeff:      0.100D+01
 Gap=     1.437 Goal=   None    Shift=    0.000
 GapD=    1.437 DampG=2.000 DampE=1.000 DampFc=2.0000 IDamp=-1.
 RMSDP=7.37D-04 MaxDP=8.63D-03              OVMax= 9.46D-03

 Cycle   2  Pass 0  IDiag  1:
 E= -553.186705667499     Delta-E=       -0.000725063713 Rises=F Damp=F
 DIIS: error= 6.74D-04 at cycle   2 NSaved=   2.
 NSaved= 2 IEnMin= 2 EnMin= -553.186705667499     IErMin= 2 ErrMin= 6.74D-04
 ErrMax= 6.74D-04  0.00D+00 EMaxC= 1.00D-01 BMatC= 6.78D-05 BMatP= 4.15D-04
 IDIUse=3 WtCom= 9.93D-01 WtEn= 6.74D-03
 Coeff-Com:  0.160D+00 0.840D+00
 Coeff-En:   0.000D+00 0.100D+01
 Coeff:      0.159D+00 0.841D+00
 Gap=     0.266 Goal=   None    Shift=    0.000
 RMSDP=2.37D-04 MaxDP=3.02D-03 DE=-7.25D-04 OVMax= 4.24D-03

 Cycle   3  Pass 0  IDiag  1:
 E= -553.186703446105     Delta-E=        0.000002221394 Rises=F Damp=F
 DIIS: error= 7.13D-04 at cycle   3 NSaved=   3.
 NSaved= 3 IEnMin= 2 EnMin= -553.186705667499     IErMin= 2 ErrMin= 6.74D-04
 ErrMax= 7.13D-04  0.00D+00 EMaxC= 1.00D-01 BMatC= 7.40D-05 BMatP= 6.78D-05
 IDIUse=3 WtCom= 9.93D-01 WtEn= 7.13D-03
 Coeff-Com: -0.337D-01 0.521D+00 0.512D+00
 Coeff-En:   0.000D+00 0.507D+00 0.493D+00
 Coeff:     -0.335D-01 0.521D+00 0.512D+00
 Gap=     0.266 Goal=   None    Shift=    0.000
 RMSDP=1.44D-04 MaxDP=1.97D-03 DE= 2.22D-06 OVMax= 2.59D-03

 Cycle   4  Pass 0  IDiag  1:
 E= -553.186775751453     Delta-E=       -0.000072305348 Rises=F Damp=F
 DIIS: error= 2.40D-04 at cycle   4 NSaved=   4.
 NSaved= 4 IEnMin= 4 EnMin= -553.186775751453     IErMin= 4 ErrMin= 2.40D-04
 ErrMax= 2.40D-04  0.00D+00 EMaxC= 1.00D-01 BMatC= 3.05D-06 BMatP= 6.78D-05
 IDIUse=3 WtCom= 9.98D-01 WtEn= 2.40D-03
 Coeff-Com: -0.247D-01 0.277D+00 0.301D+00 0.447D+00
 Coeff-En:   0.000D+00 0.000D+00 0.000D+00 0.100D+01
 Coeff:     -0.246D-01 0.276D+00 0.300D+00 0.448D+00
 Gap=     0.266 Goal=   None    Shift=    0.000
 RMSDP=4.04D-05 MaxDP=5.07D-04 DE=-7.23D-05 OVMax= 7.27D-04

 Cycle   5  Pass 0  IDiag  1:
 E= -553.186777939960     Delta-E=       -0.000002188507 Rises=F Damp=F
 DIIS: error= 8.08D-05 at cycle   5 NSaved=   5.
 NSaved= 5 IEnMin= 5 EnMin= -553.186777939960     IErMin= 5 ErrMin= 8.08D-05
 ErrMax= 8.08D-05  0.00D+00 EMaxC= 1.00D-01 BMatC= 5.27D-07 BMatP= 3.05D-06
 IDIUse=1 WtCom= 1.00D+00 WtEn= 0.00D+00
 Coeff-Com: -0.798D-02 0.669D-01 0.843D-01 0.304D+00 0.553D+00
 Coeff:     -0.798D-02 0.669D-01 0.843D-01 0.304D+00 0.553D+00
 Gap=     0.266 Goal=   None    Shift=    0.000
 RMSDP=1.20D-05 MaxDP=1.56D-04 DE=-2.19D-06 OVMax= 2.17D-04

 Cycle   6  Pass 0  IDiag  1:
 E= -553.186778381846     Delta-E=       -0.000000441885 Rises=F Damp=F
 DIIS: error= 6.28D-06 at cycle   6 NSaved=   6.
 NSaved= 6 IEnMin= 6 EnMin= -553.186778381846     IErMin= 6 ErrMin= 6.28D-06
 ErrMax= 6.28D-06  0.00D+00 EMaxC= 1.00D-01 BMatC= 4.90D-09 BMatP= 5.27D-07
 IDIUse=1 WtCom= 1.00D+00 WtEn= 0.00D+00
 Coeff-Com: -0.668D-03 0.988D-03 0.417D-02 0.647D-01 0.142D+00 0.788D+00
 Coeff:     -0.668D-03 0.988D-03 0.417D-02 0.647D-01 0.142D+00 0.788D+00
 Gap=     0.266 Goal=   None    Shift=    0.000
 RMSDP=1.79D-06 MaxDP=3.03D-05 DE=-4.42D-07 OVMax= 3.18D-05

 Initial convergence to 1.0D-05 achieved.  Increase integral accuracy.
 Cycle   7  Pass 1  IDiag  1:
 E= -553.186829551061     Delta-E=       -0.000051169216 Rises=F Damp=F
 DIIS: error= 1.30D-05 at cycle   1 NSaved=   1.
 NSaved= 1 IEnMin= 1 EnMin= -553.186829551061     IErMin= 1 ErrMin= 1.30D-05
 ErrMax= 1.30D-05  0.00D+00 EMaxC= 1.00D-01 BMatC= 1.70D-08 BMatP= 1.70D-08
 IDIUse=1 WtCom= 1.00D+00 WtEn= 0.00D+00
 Coeff-Com:  0.100D+01
 Coeff:      0.100D+01
 Gap=     0.266 Goal=   None    Shift=    0.000
 RMSDP=1.79D-06 MaxDP=3.03D-05 DE=-5.12D-05 OVMax= 5.35D-05

 Cycle   8  Pass 1  IDiag  1:
 E= -553.186829572243     Delta-E=       -0.000000021182 Rises=F Damp=F
 DIIS: error= 3.36D-06 at cycle   2 NSaved=   2.
 NSaved= 2 IEnMin= 2 EnMin= -553.186829572243     IErMin= 2 ErrMin= 3.36D-06
 ErrMax= 3.36D-06  0.00D+00 EMaxC= 1.00D-01 BMatC= 1.68D-09 BMatP= 1.70D-08
 IDIUse=1 WtCom= 1.00D+00 WtEn= 0.00D+00
 Coeff-Com:  0.102D+00 0.898D+00
 Coeff:      0.102D+00 0.898D+00
 Gap=     0.266 Goal=   None    Shift=    0.000
 RMSDP=2.00D-06 MaxDP=3.35D-05 DE=-2.12D-08 OVMax= 3.07D-05

 Cycle   9  Pass 1  IDiag  1:
 E= -553.186829569975     Delta-E=        0.000000002268 Rises=F Damp=F
 DIIS: error= 7.96D-06 at cycle   3 NSaved=   3.
 NSaved= 3 IEnMin= 2 EnMin= -553.186829572243     IErMin= 2 ErrMin= 3.36D-06
 ErrMax= 7.96D-06  0.00D+00 EMaxC= 1.00D-01 BMatC= 4.38D-09 BMatP= 1.68D-09
 IDIUse=1 WtCom= 1.00D+00 WtEn= 0.00D+00
 Coeff-Com: -0.153D-01 0.630D+00 0.386D+00
 Coeff:     -0.153D-01 0.630D+00 0.386D+00
 Gap=     0.266 Goal=   None    Shift=    0.000
 RMSDP=1.24D-06 MaxDP=1.52D-05 DE= 2.27D-09 OVMax= 2.41D-05

 Cycle  10  Pass 1  IDiag  1:
 E= -553.186829573743     Delta-E=       -0.000000003768 Rises=F Damp=F
 DIIS: error= 1.31D-06 at cycle   4 NSaved=   4.
 NSaved= 4 IEnMin= 4 EnMin= -553.186829573743     IErMin= 4 ErrMin= 1.31D-06
 ErrMax= 1.31D-06  0.00D+00 EMaxC= 1.00D-01 BMatC= 1.55D-10 BMatP= 1.68D-09
 IDIUse=1 WtCom= 1.00D+00 WtEn= 0.00D+00
 Coeff-Com: -0.157D-01 0.306D+00 0.230D+00 0.480D+00
 Coeff:     -0.157D-01 0.306D+00 0.230D+00 0.480D+00
 Gap=     0.266 Goal=   None    Shift=    0.000
 RMSDP=1.97D-07 MaxDP=2.47D-06 DE=-3.77D-09 OVMax= 2.67D-06

 Cycle  11  Pass 1  IDiag  1:
 E= -553.186829573878     Delta-E=       -0.000000000135 Rises=F Damp=F
 DIIS: error= 2.54D-07 at cycle   5 NSaved=   5.
 NSaved= 5 IEnMin= 5 EnMin= -553.186829573878     IErMin= 5 ErrMin= 2.54D-07
 ErrMax= 2.54D-07  0.00D+00 EMaxC= 1.00D-01 BMatC= 4.46D-12 BMatP= 1.55D-10
 IDIUse=1 WtCom= 1.00D+00 WtEn= 0.00D+00
 Coeff-Com: -0.533D-02 0.798D-01 0.740D-01 0.199D+00 0.653D+00
 Coeff:     -0.533D-02 0.798D-01 0.740D-01 0.199D+00 0.653D+00
 Gap=     0.266 Goal=   None    Shift=    0.000
 RMSDP=3.63D-08 MaxDP=6.51D-07 DE=-1.35D-10 OVMax= 5.24D-07

 Cycle  12  Pass 1  IDiag  1:
 E= -553.186829573882     Delta-E=       -0.000000000004 Rises=F Damp=F
 DIIS: error= 2.89D-08 at cycle   6 NSaved=   6.
 NSaved= 6 IEnMin= 6 EnMin= -553.186829573882     IErMin= 6 ErrMin= 2.89D-08
 ErrMax= 2.89D-08  0.00D+00 EMaxC= 1.00D-01 BMatC= 2.07D-13 BMatP= 4.46D-12
 IDIUse=1 WtCom= 1.00D+00 WtEn= 0.00D+00
 Coeff-Com: -0.853D-03 0.694D-02 0.109D-01 0.316D-01 0.218D+00 0.734D+00
 Coeff:     -0.853D-03 0.694D-02 0.109D-01 0.316D-01 0.218D+00 0.734D+00
 Gap=     0.266 Goal=   None    Shift=    0.000
 RMSDP=9.81D-09 MaxDP=2.61D-07 DE=-4.43D-12 OVMax= 1.25D-07

 SCF Done:  E(RB3LYP) =  -553.186829574     A.U. after   12 cycles
            NFock= 12  Conv=0.98D-08     -V/T= 2.0051
 KE= 5.503936435211D+02 PE=-1.670069809985D+03 EE= 3.851139623697D+02
 Leave Link  502 at Fri Mar 20 17:40:37 2026, MaxMem=   536870912 cpu:         4.0
 (Enter C:\G09W\l701.exe)
 Compute integral first derivatives.
 ... and contract with generalized density number  0.
 Leave Link  701 at Fri Mar 20 17:40:37 2026, MaxMem=   536870912 cpu:         0.0
 (Enter C:\G09W\l702.exe)
 L702 exits ... SP integral derivatives will be done elsewhere.
 Leave Link  702 at Fri Mar 20 17:40:37 2026, MaxMem=   536870912 cpu:         0.0
 (Enter C:\G09W\l703.exe)
 Compute integral first derivatives, UseDBF=F ICtDFT=           0.
 Integral derivatives from FoFJK, PRISM(SPDF).
 Calling FoFJK, ICntrl=      2127 FMM=F ISym2X=0 I1Cent= 0 IOpClX= 0 NMat=1 NMatS=1 NMatT=0.
 FoFJK:  IHMeth= 1 ICntrl=    2127 DoSepK=F KAlg= 0 I1Cent=   0 FoldK=F
 IRaf=         0 NMat=   1 IRICut=       1 DoRegI=T DoRafI=F ISym2E= 0.
 FoFCou: FMM=F IPFlag=           0 FMFlag=      100000 FMFlg1=         800
         NFxFlg=           0 DoJE=F BraDBF=F KetDBF=F FulRan=T
         wScrn=  0.000000 ICntrl=    2127 IOpCl=  0 I1Cent=           0 NGrid=           0
         NMat0=    1 NMatS0=      1 NMatT0=    0 NMatD0=    1 NMtDS0=    0 NMtDT0=    0
 Symmetry not used in FoFCou.
 Leave Link  703 at Fri Mar 20 17:40:38 2026, MaxMem=   536870912 cpu:         1.0
 (Enter C:\G09W\l716.exe)
 Dipole        =-5.20062037D-04-1.53159823D+00-2.02626212D-01
 ***** Axes restored to original set *****
 -------------------------------------------------------------------
 Center     Atomic                   Forces (Hartrees/Bohr)
 Number     Number              X              Y              Z
 -------------------------------------------------------------------
      1        6           0.000204954   -0.000643800    0.002186013
      2       16           0.003655929   -0.000134767   -0.004740282
      3        6          -0.003212662    0.001258545   -0.000917849
      4        8          -0.001266718   -0.000594919    0.002208302
      5        1          -0.000628399   -0.000552904   -0.000127607
      6        1           0.000200952    0.000632237    0.000039362
      7        1           0.000450623    0.000901660    0.000408861
      8        1           0.000195750   -0.000379075    0.000187247
      9        1          -0.000143625    0.000128377    0.000074424
     10        1           0.000543197   -0.000615354    0.000681529
 -------------------------------------------------------------------
 Cartesian Forces:  Max     0.004740282 RMS     0.001465284
 Leave Link  716 at Fri Mar 20 17:40:38 2026, MaxMem=   536870912 cpu:         0.0
 (Enter C:\G09W\l103.exe)

 GradGradGradGradGradGradGradGradGradGradGradGradGradGradGradGradGradGrad
 Berny optimization.
 Using GEDIIS/GDIIS optimizer.
 FormGI is forming the generalized inverse of G from B-inverse, IUseBI=4.
 Internal  Forces:  Max     0.002052108 RMS     0.000957593
 Search for a local minimum.
 Step number   2 out of a maximum of   46
 All quantities printed in internal units (Hartrees-Bohrs-Radians)
 RMS Force = .95759D-03 SwitMx=.10000D-02 MixMth= 2
 Mixed Optimization -- En-DIIS/RFO-DIIS
 Update second derivatives using D2CorX and points    1    2
 DE= -5.44D-04 DEPred=-6.92D-04 R= 7.87D-01
 TightC=F SS=  1.41D+00  RLast= 1.16D-01 DXNew= 5.0454D-01 3.4752D-01
 Trust test= 7.87D-01 RLast= 1.16D-01 DXMaxT set to 3.48D-01
 ITU=  1  0
 Use linear search instead of GDIIS.
     Eigenvalues ---    0.00230   0.00232   0.06980   0.07237   0.07358
     Eigenvalues ---    0.07571   0.08285   0.12224   0.14149   0.16000
     Eigenvalues ---    0.16000   0.16000   0.16000   0.17620   0.22727
     Eigenvalues ---    0.23706   0.26001   0.33511   0.34153   0.34239
     Eigenvalues ---    0.34605   0.35355   0.35506   0.73632
 RFO step:  Lambda=-1.86928900D-04 EMin= 2.29806075D-03
 Quartic linear search produced a step of -0.16137.
 Iteration  1 RMS(Cart)=  0.00979004 RMS(Int)=  0.00008994
 Iteration  2 RMS(Cart)=  0.00010437 RMS(Int)=  0.00003750
 Iteration  3 RMS(Cart)=  0.00000001 RMS(Int)=  0.00003750
 ITry= 1 IFail=0 DXMaxC= 2.52D-02 DCOld= 1.00D+10 DXMaxT= 3.48D-01 DXLimC= 3.00D+00 Rises=F
 Variable       Old X    -DE/DX   Delta X   Delta X   Delta X     New X
                                 (Linear)    (Quad)   (Total)
    R1        3.47636  -0.00076   0.00140  -0.00540  -0.00400   3.47236
    R2        2.06748   0.00026   0.00052  -0.00035   0.00017   2.06765
    R3        2.06450   0.00006   0.00098  -0.00170  -0.00072   2.06378
    R4        2.06984  -0.00069   0.00034  -0.00234  -0.00200   2.06785
    R5        3.48631  -0.00205  -0.00119  -0.00516  -0.00635   3.47996
    R6        2.85142   0.00163  -0.00159   0.00482   0.00323   2.85465
    R7        2.06709   0.00021  -0.00273   0.00567   0.00294   2.07003
    R8        2.06429  -0.00001  -0.00205   0.00387   0.00182   2.06611
    R9        2.06574   0.00061  -0.00281   0.00677   0.00395   2.06970
    A1        1.90401   0.00165   0.00248   0.00494   0.00745   1.91147
    A2        1.87387  -0.00103   0.00341  -0.01239  -0.00897   1.86490
    A3        1.92533  -0.00136  -0.00231  -0.00322  -0.00555   1.91977
    A4        1.91121  -0.00008  -0.00039   0.00125   0.00093   1.91215
    A5        1.93400   0.00006  -0.00203   0.00517   0.00314   1.93714
    A6        1.91438   0.00074  -0.00105   0.00373   0.00263   1.91701
    A7        1.67631  -0.00181  -0.00393  -0.00557  -0.00954   1.66677
    A8        1.88896  -0.00119  -0.00568  -0.00626  -0.01207   1.87690
    A9        1.88657  -0.00052   0.00009  -0.01233  -0.01226   1.87431
   A10        1.91038   0.00042  -0.00339   0.00877   0.00540   1.91578
   A11        1.86870  -0.00052  -0.00385   0.00407   0.00024   1.86894
   A12        1.90569   0.00126  -0.00106   0.00879   0.00773   1.91342
   A13        1.91906  -0.00004   0.00276  -0.00593  -0.00313   1.91594
   A14        1.94141  -0.00068   0.00181  -0.00614  -0.00435   1.93707
   A15        1.91710  -0.00042   0.00330  -0.00896  -0.00565   1.91145
    D1        1.02958  -0.00073  -0.00160   0.00701   0.00544   1.03502
    D2       -0.91342   0.00084   0.00099   0.02405   0.02507  -0.88835
    D3        3.09923  -0.00050   0.00135   0.00421   0.00551   3.10474
    D4        1.15623   0.00106   0.00394   0.02124   0.02513   1.18137
    D5       -1.09865  -0.00100   0.00079  -0.00057   0.00024  -1.09840
    D6       -3.04164   0.00057   0.00338   0.01647   0.01987  -3.02177
    D7        1.09829   0.00116   0.00026   0.00564   0.00588   1.10417
    D8       -3.10535   0.00105  -0.00040   0.00571   0.00525  -3.10010
    D9       -1.03071   0.00094   0.00080   0.00212   0.00286  -1.02785
   D10        3.04329  -0.00096  -0.00733  -0.00629  -0.01355   3.02975
   D11       -1.16035  -0.00108  -0.00798  -0.00622  -0.01418  -1.17453
   D12        0.91429  -0.00119  -0.00679  -0.00981  -0.01657   0.89773
         Item               Value     Threshold  Converged?
 Maximum Force            0.002052     0.000450     NO 
 RMS     Force            0.000958     0.000300     NO 
 Maximum Displacement     0.025186     0.001800     NO 
 RMS     Displacement     0.009855     0.001200     NO 
 Predicted change in Energy=-1.120698D-04
 Lowest energy point so far.  Saving SCF results.
 GradGradGradGradGradGradGradGradGradGradGradGradGradGradGradGradGradGrad

 Leave Link  103 at Fri Mar 20 17:40:39 2026, MaxMem=   536870912 cpu:         0.0
 (Enter C:\G09W\l202.exe)
                          Input orientation:                          
 ---------------------------------------------------------------------
 Center     Atomic      Atomic             Coordinates (Angstroms)
 Number     Number       Type             X           Y           Z
 ---------------------------------------------------------------------
      1          6           0       -1.167170   -0.387277   -0.614885
      2         16           0        0.012017    1.000173   -0.368160
      3          6           0        1.305635   -0.013338    0.462814
      4          8           0       -0.579228    1.920231    0.673900
      5          1           0       -1.432130   -0.818729    0.355072
      6          1           0       -2.058978    0.034675   -1.083210
      7          1           0       -0.724567   -1.142138   -1.271915
      8          1           0        1.681731   -0.774189   -0.229710
      9          1           0        2.115778    0.665829    0.741717
     10          1           0        0.888645   -0.475133    1.364152
 ---------------------------------------------------------------------
                    Distance matrix (angstroms):
                    1          2          3          4          5
     1  C    0.000000
     2  S    1.837491   0.000000
     3  C    2.723239   1.841513   0.000000
     4  O    2.707625   1.510618   2.708496   0.000000
     5  H    1.094153   2.432495   2.855805   2.886346   0.000000
     6  H    1.092105   2.394265   3.703123   2.971939   1.786027
     7  H    1.094258   2.439022   2.899171   3.631174   1.803420
     8  H    2.900741   2.440384   1.095414   3.631576   3.168609
     9  H    3.705016   2.401962   1.093337   2.973412   3.865367
    10  H    2.854940   2.438424   1.095237   2.892899   2.553879
                    6          7          8          9         10
     6  H    0.000000
     7  H    1.789176   0.000000
     8  H    3.921177   2.647990   0.000000
     9  H    4.599707   3.923139   1.790452   0.000000
    10  H    3.864967   3.161676   1.805219   1.787477   0.000000
 Stoichiometry    C2H6OS
 Framework group  C1[X(C2H6OS)]
 Deg. of freedom    24
 Full point group                 C1      NOp   1
 RotChk:  IX=0 Diff= 8.30D-03
 Largest Abelian subgroup         C1      NOp   1
 Largest concise Abelian subgroup C1      NOp   1
                         Standard orientation:                         
 ---------------------------------------------------------------------
 Center     Atomic      Atomic             Coordinates (Angstroms)
 Number     Number       Type             X           Y           Z
 ---------------------------------------------------------------------
      1          6           0       -1.354700   -0.833231    0.180939
      2         16           0       -0.003476    0.245657   -0.440808
      3          6           0        1.368475   -0.814592    0.179511
      4          8           0       -0.009827    1.507491    0.389674
      5          1           0       -1.269405   -0.936904    1.266824
      6          1           0       -2.295442   -0.336587   -0.066127
      7          1           0       -1.310039   -1.809776   -0.310758
      8          1           0        1.337858   -1.789413   -0.319206
      9          1           0        2.304147   -0.303921   -0.063633
     10          1           0        1.284454   -0.926894    1.265730
 ---------------------------------------------------------------------
 Rotational constants (GHZ):      6.7597466      6.7012707      4.0559109
 Leave Link  202 at Fri Mar 20 17:40:39 2026, MaxMem=   536870912 cpu:         0.0
 (Enter C:\G09W\l301.exe)
 Standard basis: 6-31G(d) (6D, 7F)
 Ernie: Thresh=  0.10000D-02 Tol=  0.10000D-05 Strict=F.
 There are    76 symmetry adapted cartesian basis functions of A   symmetry.
 There are    76 symmetry adapted basis functions of A   symmetry.
    76 basis functions,   160 primitive gaussians,    76 cartesian basis functions
    21 alpha electrons       21 beta electrons
       nuclear repulsion energy       181.6027907517 Hartrees.
 IExCor=  402 DFT=T Ex+Corr=B3LYP ExCW=0 ScaHFX=  0.200000
 ScaDFX=  0.800000  0.720000  1.000000  0.810000 ScalE2=  1.000000  1.000000
 IRadAn=      0 IRanWt=     -1 IRanGd=            0 ICorTp=0 IEmpDi=  4
 NAtoms=   10 NActive=   10 NUniq=   10 SFac= 1.00D+00 NAtFMM=   60 NAOKFM=F Big=F
 Integral buffers will be    131072 words long.
 Raffenetti 2 integral format.
 Two-electron integral symmetry is turned on.
 Leave Link  301 at Fri Mar 20 17:40:39 2026, MaxMem=   536870912 cpu:         0.0
 (Enter C:\G09W\l302.exe)
 NPDir=0 NMtPBC=     1 NCelOv=     1 NCel=       1 NClECP=     1 NCelD=      1
         NCelK=      1 NCelE2=     1 NClLst=     1 CellRange=     0.0.
 One-electron integrals computed using PRISM.
 NBasis=    76 RedAO= T EigKep=  4.96D-03  NBF=    76
 NBsUse=    76 1.00D-06 EigRej= -1.00D+00 NBFU=    76
 Precomputing XC quadrature grid using
 IXCGrd= 4 IRadAn=           0 IRanWt=          -1 IRanGd=           0 AccXCQ= 0.00D+00.
 Generated NRdTot=       0 NPtTot=           0 NUsed=           0 NTot=          32
 NSgBfM=    76    76    76    76    76 MxSgAt=    10 MxSgA2=    10.
 Leave Link  302 at Fri Mar 20 17:40:39 2026, MaxMem=   536870912 cpu:         0.0
 (Enter C:\G09W\l303.exe)
 DipDrv:  MaxL=1.
 Leave Link  303 at Fri Mar 20 17:40:40 2026, MaxMem=   536870912 cpu:         0.0
 (Enter C:\G09W\l401.exe)
 Initial guess from the checkpoint file:  "dimethylsulfoxide_ml.chk"
 B after Tr=     0.000000    0.000000    0.000000
         Rot=    0.999997   -0.000158    0.000155   -0.002610 Ang=  -0.30 deg.
 Guess basis will be translated and rotated to current coordinates.
 JPrj=2 DoOrth=T DoCkMO=T.
 Generating alternative initial guess.
 ExpMin= 1.17D-01 ExpMax= 2.19D+04 ExpMxC= 3.30D+03 IAcc=1 IRadAn=         1 AccDes= 0.00D+00
 Harris functional with IExCor=  402 and IRadAn=       1 diagonalized for initial guess.
 HarFok:  IExCor=  402 AccDes= 0.00D+00 IRadAn=         1 IDoV= 1 UseB2=F ITyADJ=14
 ICtDFT=  3500011 ScaDFX=  1.000000  1.000000  1.000000  1.000000
 FoFCou: FMM=F IPFlag=           0 FMFlag=      100000 FMFlg1=           0
         NFxFlg=           0 DoJE=T BraDBF=F KetDBF=T FulRan=T
         wScrn=  0.000000 ICntrl=     500 IOpCl=  0 I1Cent=   200000004 NGrid=           0
         NMat0=    1 NMatS0=      1 NMatT0=    0 NMatD0=    1 NMtDS0=    0 NMtDT0=    0
 Petite list used in FoFCou.
 Harris En= -553.237702749393    
 Leave Link  401 at Fri Mar 20 17:40:40 2026, MaxMem=   536870912 cpu:         0.0
 (Enter C:\G09W\l502.exe)
 Closed shell SCF:
 Using DIIS extrapolation, IDIIS=  1040.
 Integral symmetry usage will be decided dynamically.
 Keep R1 ints in memory in canonical form, NReq=5217272.
 IVT=       36915 IEndB=       36915 NGot=   536870912 MDV=   532551797
 LenX=   532551797 LenY=   532545580
 Requested convergence on RMS density matrix=1.00D-08 within 128 cycles.
 Requested convergence on MAX density matrix=1.00D-06.
 Requested convergence on             energy=1.00D-06.
 No special actions if energy rises.
 FoFCou: FMM=F IPFlag=           0 FMFlag=           0 FMFlg1=           0
         NFxFlg=           0 DoJE=F BraDBF=F KetDBF=F FulRan=T
         wScrn=  0.000000 ICntrl=     600 IOpCl=  0 I1Cent=           0 NGrid=           0
         NMat0=    1 NMatS0=   2926 NMatT0=    0 NMatD0=    1 NMtDS0=    0 NMtDT0=    0
 Symmetry not used in FoFCou.
 Integral accuracy reduced to 1.0D-05 until final iterations.

 Cycle   1  Pass 0  IDiag  1:
 E= -553.186703340286    
 DIIS: error= 1.12D-03 at cycle   1 NSaved=   1.
 NSaved= 1 IEnMin= 1 EnMin= -553.186703340286     IErMin= 1 ErrMin= 1.12D-03
 ErrMax= 1.12D-03  0.00D+00 EMaxC= 1.00D-01 BMatC= 8.39D-05 BMatP= 8.39D-05
 IDIUse=3 WtCom= 9.89D-01 WtEn= 1.12D-02
 Coeff-Com:  0.100D+01
 Coeff-En:   0.100D+01
 Coeff:      0.100D+01
 Gap=     1.439 Goal=   None    Shift=    0.000
 GapD=    1.439 DampG=2.000 DampE=1.000 DampFc=2.0000 IDamp=-1.
 RMSDP=3.20D-04 MaxDP=4.04D-03              OVMax= 4.74D-03

 Cycle   2  Pass 0  IDiag  1:
 E= -553.186862781905     Delta-E=       -0.000159441618 Rises=F Damp=F
 DIIS: error= 2.41D-04 at cycle   2 NSaved=   2.
 NSaved= 2 IEnMin= 2 EnMin= -553.186862781905     IErMin= 2 ErrMin= 2.41D-04
 ErrMax= 2.41D-04  0.00D+00 EMaxC= 1.00D-01 BMatC= 6.40D-06 BMatP= 8.39D-05
 IDIUse=3 WtCom= 9.98D-01 WtEn= 2.41D-03
 Coeff-Com:  0.517D-01 0.948D+00
 Coeff-En:   0.000D+00 0.100D+01
 Coeff:      0.516D-01 0.948D+00
 Gap=     0.265 Goal=   None    Shift=    0.000
 RMSDP=8.30D-05 MaxDP=1.10D-03 DE=-1.59D-04 OVMax= 1.32D-03

 Cycle   3  Pass 0  IDiag  1:
 E= -553.186857708935     Delta-E=        0.000005072970 Rises=F Damp=F
 DIIS: error= 4.05D-04 at cycle   3 NSaved=   3.
 NSaved= 3 IEnMin= 2 EnMin= -553.186862781905     IErMin= 2 ErrMin= 2.41D-04
 ErrMax= 4.05D-04  0.00D+00 EMaxC= 1.00D-01 BMatC= 1.42D-05 BMatP= 6.40D-06
 IDIUse=3 WtCom= 3.32D-01 WtEn= 6.68D-01
 Coeff-Com: -0.432D-01 0.625D+00 0.419D+00
 Coeff-En:   0.000D+00 0.633D+00 0.367D+00
 Coeff:     -0.143D-01 0.630D+00 0.384D+00
 Gap=     0.264 Goal=   None    Shift=    0.000
 RMSDP=6.23D-05 MaxDP=7.71D-04 DE= 5.07D-06 OVMax= 1.03D-03

 Cycle   4  Pass 0  IDiag  1:
 E= -553.186868863712     Delta-E=       -0.000011154777 Rises=F Damp=F
 DIIS: error= 7.67D-05 at cycle   4 NSaved=   4.
 NSaved= 4 IEnMin= 4 EnMin= -553.186868863712     IErMin= 4 ErrMin= 7.67D-05
 ErrMax= 7.67D-05  0.00D+00 EMaxC= 1.00D-01 BMatC= 4.67D-07 BMatP= 6.40D-06
 IDIUse=1 WtCom= 1.00D+00 WtEn= 0.00D+00
 Coeff-Com: -0.262D-01 0.309D+00 0.234D+00 0.483D+00
 Coeff:     -0.262D-01 0.309D+00 0.234D+00 0.483D+00
 Gap=     0.265 Goal=   None    Shift=    0.000
 RMSDP=1.48D-05 MaxDP=1.87D-04 DE=-1.12D-05 OVMax= 2.67D-04

 Cycle   5  Pass 0  IDiag  1:
 E= -553.186869296584     Delta-E=       -0.000000432873 Rises=F Damp=F
 DIIS: error= 1.70D-05 at cycle   5 NSaved=   5.
 NSaved= 5 IEnMin= 5 EnMin= -553.186869296584     IErMin= 5 ErrMin= 1.70D-05
 ErrMax= 1.70D-05  0.00D+00 EMaxC= 1.00D-01 BMatC= 3.32D-08 BMatP= 4.67D-07
 IDIUse=1 WtCom= 1.00D+00 WtEn= 0.00D+00
 Coeff-Com: -0.692D-02 0.583D-01 0.578D-01 0.229D+00 0.661D+00
 Coeff:     -0.692D-02 0.583D-01 0.578D-01 0.229D+00 0.661D+00
 Gap=     0.265 Goal=   None    Shift=    0.000
 RMSDP=2.90D-06 MaxDP=4.27D-05 DE=-4.33D-07 OVMax= 5.04D-05

 Initial convergence to 1.0D-05 achieved.  Increase integral accuracy.
 Cycle   6  Pass 1  IDiag  1:
 E= -553.186919776030     Delta-E=       -0.000050479446 Rises=F Damp=F
 DIIS: error= 1.46D-05 at cycle   1 NSaved=   1.
 NSaved= 1 IEnMin= 1 EnMin= -553.186919776030     IErMin= 1 ErrMin= 1.46D-05
 ErrMax= 1.46D-05  0.00D+00 EMaxC= 1.00D-01 BMatC= 1.79D-08 BMatP= 1.79D-08
 IDIUse=1 WtCom= 1.00D+00 WtEn= 0.00D+00
 Coeff-Com:  0.100D+01
 Coeff:      0.100D+01
 Gap=     0.265 Goal=   None    Shift=    0.000
 RMSDP=2.90D-06 MaxDP=4.27D-05 DE=-5.05D-05 OVMax= 5.21D-05

 Cycle   7  Pass 1  IDiag  1:
 E= -553.186919796897     Delta-E=       -0.000000020867 Rises=F Damp=F
 DIIS: error= 4.73D-06 at cycle   2 NSaved=   2.
 NSaved= 2 IEnMin= 2 EnMin= -553.186919796897     IErMin= 2 ErrMin= 4.73D-06
 ErrMax= 4.73D-06  0.00D+00 EMaxC= 1.00D-01 BMatC= 3.51D-09 BMatP= 1.79D-08
 IDIUse=1 WtCom= 1.00D+00 WtEn= 0.00D+00
 Coeff-Com:  0.207D+00 0.793D+00
 Coeff:      0.207D+00 0.793D+00
 Gap=     0.265 Goal=   None    Shift=    0.000
 RMSDP=2.76D-06 MaxDP=5.04D-05 DE=-2.09D-08 OVMax= 4.28D-05

 Cycle   8  Pass 1  IDiag  1:
 E= -553.186919794999     Delta-E=        0.000000001898 Rises=F Damp=F
 DIIS: error= 8.40D-06 at cycle   3 NSaved=   3.
 NSaved= 3 IEnMin= 2 EnMin= -553.186919796897     IErMin= 2 ErrMin= 4.73D-06
 ErrMax= 8.40D-06  0.00D+00 EMaxC= 1.00D-01 BMatC= 5.95D-09 BMatP= 3.51D-09
 IDIUse=1 WtCom= 1.00D+00 WtEn= 0.00D+00
 Coeff-Com: -0.199D-02 0.569D+00 0.433D+00
 Coeff:     -0.199D-02 0.569D+00 0.433D+00
 Gap=     0.265 Goal=   None    Shift=    0.000
 RMSDP=1.48D-06 MaxDP=1.95D-05 DE= 1.90D-09 OVMax= 2.90D-05

 Cycle   9  Pass 1  IDiag  1:
 E= -553.186919799905     Delta-E=       -0.000000004906 Rises=F Damp=F
 DIIS: error= 2.23D-06 at cycle   4 NSaved=   4.
 NSaved= 4 IEnMin= 4 EnMin= -553.186919799905     IErMin= 4 ErrMin= 2.23D-06
 ErrMax= 2.23D-06  0.00D+00 EMaxC= 1.00D-01 BMatC= 2.99D-10 BMatP= 3.51D-09
 IDIUse=1 WtCom= 1.00D+00 WtEn= 0.00D+00
 Coeff-Com: -0.166D-01 0.288D+00 0.268D+00 0.461D+00
 Coeff:     -0.166D-01 0.288D+00 0.268D+00 0.461D+00
 Gap=     0.265 Goal=   None    Shift=    0.000
 RMSDP=2.67D-07 MaxDP=6.02D-06 DE=-4.91D-09 OVMax= 3.84D-06

 Cycle  10  Pass 1  IDiag  1:
 E= -553.186919800169     Delta-E=       -0.000000000264 Rises=F Damp=F
 DIIS: error= 2.00D-07 at cycle   5 NSaved=   5.
 NSaved= 5 IEnMin= 5 EnMin= -553.186919800169     IErMin= 5 ErrMin= 2.00D-07
 ErrMax= 2.00D-07  0.00D+00 EMaxC= 1.00D-01 BMatC= 7.51D-12 BMatP= 2.99D-10
 IDIUse=1 WtCom= 1.00D+00 WtEn= 0.00D+00
 Coeff-Com: -0.743D-02 0.911D-01 0.969D-01 0.207D+00 0.612D+00
 Coeff:     -0.743D-02 0.911D-01 0.969D-01 0.207D+00 0.612D+00
 Gap=     0.265 Goal=   None    Shift=    0.000
 RMSDP=4.52D-08 MaxDP=7.07D-07 DE=-2.64D-10 OVMax= 7.54D-07

 Cycle  11  Pass 1  IDiag  1:
 E= -553.186919800175     Delta-E=       -0.000000000007 Rises=F Damp=F
 DIIS: error= 4.00D-08 at cycle   6 NSaved=   6.
 NSaved= 6 IEnMin= 6 EnMin= -553.186919800175     IErMin= 6 ErrMin= 4.00D-08
 ErrMax= 4.00D-08  0.00D+00 EMaxC= 1.00D-01 BMatC= 4.04D-13 BMatP= 7.51D-12
 IDIUse=1 WtCom= 1.00D+00 WtEn= 0.00D+00
 Coeff-Com: -0.111D-02 0.670D-02 0.117D-01 0.330D-01 0.222D+00 0.727D+00
 Coeff:     -0.111D-02 0.670D-02 0.117D-01 0.330D-01 0.222D+00 0.727D+00
 Gap=     0.265 Goal=   None    Shift=    0.000
 RMSDP=1.90D-08 MaxDP=2.95D-07 DE=-6.59D-12 OVMax= 3.02D-07

 Cycle  12  Pass 1  IDiag  1:
 E= -553.186919800167     Delta-E=        0.000000000009 Rises=F Damp=F
 DIIS: error= 1.67D-08 at cycle   7 NSaved=   7.
 NSaved= 7 IEnMin= 6 EnMin= -553.186919800175     IErMin= 7 ErrMin= 1.67D-08
 ErrMax= 1.67D-08  0.00D+00 EMaxC= 1.00D-01 BMatC= 3.34D-14 BMatP= 4.04D-13
 IDIUse=1 WtCom= 1.00D+00 WtEn= 0.00D+00
 Coeff-Com:  0.708D-04-0.333D-02-0.235D-02-0.249D-02 0.337D-01 0.274D+00
 Coeff-Com:  0.700D+00
 Coeff:      0.708D-04-0.333D-02-0.235D-02-0.249D-02 0.337D-01 0.274D+00
 Coeff:      0.700D+00
 Gap=     0.265 Goal=   None    Shift=    0.000
 RMSDP=4.26D-09 MaxDP=7.25D-08 DE= 8.53D-12 OVMax= 7.65D-08

 SCF Done:  E(RB3LYP) =  -553.186919800     A.U. after   12 cycles
            NFock= 12  Conv=0.43D-08     -V/T= 2.0051
 KE= 5.503951234463D+02 PE=-1.670529696200D+03 EE= 3.853448622019D+02
 Leave Link  502 at Fri Mar 20 17:40:44 2026, MaxMem=   536870912 cpu:         3.0
 (Enter C:\G09W\l701.exe)
 Compute integral first derivatives.
 ... and contract with generalized density number  0.
 Leave Link  701 at Fri Mar 20 17:40:45 2026, MaxMem=   536870912 cpu:         1.0
 (Enter C:\G09W\l702.exe)
 L702 exits ... SP integral derivatives will be done elsewhere.
 Leave Link  702 at Fri Mar 20 17:40:45 2026, MaxMem=   536870912 cpu:         0.0
 (Enter C:\G09W\l703.exe)
 Compute integral first derivatives, UseDBF=F ICtDFT=           0.
 Integral derivatives from FoFJK, PRISM(SPDF).
 Calling FoFJK, ICntrl=      2127 FMM=F ISym2X=0 I1Cent= 0 IOpClX= 0 NMat=1 NMatS=1 NMatT=0.
 FoFJK:  IHMeth= 1 ICntrl=    2127 DoSepK=F KAlg= 0 I1Cent=   0 FoldK=F
 IRaf=         0 NMat=   1 IRICut=       1 DoRegI=T DoRafI=F ISym2E= 0.
 FoFCou: FMM=F IPFlag=           0 FMFlag=      100000 FMFlg1=         800
         NFxFlg=           0 DoJE=F BraDBF=F KetDBF=F FulRan=T
         wScrn=  0.000000 ICntrl=    2127 IOpCl=  0 I1Cent=           0 NGrid=           0
         NMat0=    1 NMatS0=      1 NMatT0=    0 NMatD0=    1 NMtDS0=    0 NMtDT0=    0
 Symmetry not used in FoFCou.
 Leave Link  703 at Fri Mar 20 17:40:46 2026, MaxMem=   536870912 cpu:         1.0
 (Enter C:\G09W\l716.exe)
 Dipole        = 7.01374687D-03-1.52457760D+00-2.21317135D-01
 ***** Axes restored to original set *****
 -------------------------------------------------------------------
 Center     Atomic                   Forces (Hartrees/Bohr)
 Number     Number              X              Y              Z
 -------------------------------------------------------------------
      1        6          -0.000163221    0.000263132   -0.000137371
      2       16           0.001355333   -0.001584632    0.001325198
      3        6           0.000164326    0.000164374   -0.000657595
      4        8          -0.000462158    0.000654426    0.000075411
      5        1           0.000102141    0.000072385   -0.000033828
      6        1          -0.000517565   -0.000132612   -0.000162966
      7        1          -0.000019746   -0.000027603   -0.000085951
      8        1          -0.000085329    0.000351830    0.000565008
      9        1          -0.000378974   -0.000198822   -0.000115972
     10        1           0.000005195    0.000437522   -0.000771935
 -------------------------------------------------------------------
 Cartesian Forces:  Max     0.001584632 RMS     0.000551498
 Leave Link  716 at Fri Mar 20 17:40:46 2026, MaxMem=   536870912 cpu:         0.0
 (Enter C:\G09W\l103.exe)

 GradGradGradGradGradGradGradGradGradGradGradGradGradGradGradGradGradGrad
 Berny optimization.
 Using GEDIIS/GDIIS optimizer.
 FormGI is forming the generalized inverse of G from B-inverse, IUseBI=4.
 Internal  Forces:  Max     0.001189573 RMS     0.000420242
 Search for a local minimum.
 Step number   3 out of a maximum of   46
 All quantities printed in internal units (Hartrees-Bohrs-Radians)
 RMS Force = .42024D-03 SwitMx=.10000D-02 MixMth= 2
 Mixed Optimization -- En-DIIS/RFO-DIIS
 Swapping is turned off.
 Update second derivatives using D2CorX and points    1    2    3
 DE= -9.02D-05 DEPred=-1.12D-04 R= 8.05D-01
 TightC=F SS=  1.41D+00  RLast= 5.71D-02 DXNew= 5.8445D-01 1.7140D-01
 Trust test= 8.05D-01 RLast= 5.71D-02 DXMaxT set to 3.48D-01
 ITU=  1  1  0
     Eigenvalues ---    0.00230   0.00237   0.07041   0.07168   0.07410
     Eigenvalues ---    0.07568   0.09292   0.12325   0.13361   0.16000
     Eigenvalues ---    0.16000   0.16000   0.16349   0.18173   0.22280
     Eigenvalues ---    0.23418   0.27445   0.33993   0.34214   0.34296
     Eigenvalues ---    0.35353   0.35492   0.36459   0.71891
 En-DIIS/RFO-DIIS IScMMF=        0 using points:     3    2
 RFO step:  Lambda=-1.23523038D-05.
 NNeg= 0 NP= 2 Switch=  2.50D-03 Rises=F DC=  9.02D-05 SmlDif=  1.00D-05
 RMS Error=  0.8903799427D-03 NUsed= 2 EDIIS=F
 DidBck=F Rises=F RFO-DIIS coefs:    0.82403    0.17597
 Iteration  1 RMS(Cart)=  0.00784255 RMS(Int)=  0.00003316
 Iteration  2 RMS(Cart)=  0.00003598 RMS(Int)=  0.00000716
 Iteration  3 RMS(Cart)=  0.00000000 RMS(Int)=  0.00000716
 ITry= 1 IFail=0 DXMaxC= 1.72D-02 DCOld= 1.00D+10 DXMaxT= 3.48D-01 DXLimC= 3.00D+00 Rises=F
 Variable       Old X    -DE/DX   Delta X   Delta X   Delta X     New X
                                 (Linear)    (Quad)   (Total)
    R1        3.47236   0.00031   0.00070   0.00009   0.00080   3.47315
    R2        2.06765  -0.00008  -0.00003  -0.00010  -0.00013   2.06752
    R3        2.06378   0.00044   0.00013   0.00092   0.00105   2.06483
    R4        2.06785   0.00006   0.00035  -0.00037  -0.00002   2.06782
[...]
               16            17            18            19            20 
     16  0.250536D+00
     17 -0.557661D-01  0.540662D-01
     18 -0.557609D-01 -0.777149D-03  0.540684D-01
     19 -0.128688D-01 -0.645594D-03  0.207746D-01  0.946931D-01
     20  0.327687D-01 -0.341409D-02 -0.120173D-01 -0.139616D-01  0.102675D+00
     21 -0.720902D-02  0.181824D-02 -0.144601D-01 -0.158402D-01 -0.153181D-01
     22 -0.782406D-02  0.104530D-02 -0.657174D-03 -0.340824D-01 -0.380877D-01
     23  0.405008D-02  0.159799D-03 -0.524276D-03 -0.360747D-01  0.573183D-02
     24 -0.800653D-02  0.926646D-03  0.644191D-02  0.604474D-02 -0.379980D-01
     25  0.614035D-02 -0.139095D-02  0.188485D-01  0.936011D-02 -0.162487D-02
     26 -0.152495D-01  0.811818D-02 -0.180957D-01 -0.795926D-02 -0.231036D-03
     27  0.113884D-01 -0.839793D-02  0.189880D-01  0.858266D-02 -0.745028D-03
     28 -0.100015D-01  0.111121D-02 -0.179562D-01 -0.873671D-02  0.648805D-03
     29  0.141270D-01 -0.475106D-02  0.178811D-01  0.802695D-02  0.404640D-03
     30 -0.726284D-02  0.475807D-02 -0.190631D-01 -0.929242D-02  0.179847D-02
     31 -0.141289D-01 -0.178783D-01  0.475057D-02  0.187428D-02 -0.799262D-02
     32 -0.113900D-01 -0.189866D-01  0.839931D-02  0.519096D-02 -0.110364D-02
     33 -0.614340D-02 -0.188454D-01  0.139122D-02 -0.414595D-02  0.389451D-02
     34  0.726305D-02  0.190605D-01 -0.475760D-02  0.105171D-02 -0.209916D-02
     35  0.100019D-01  0.179522D-01 -0.110886D-02  0.436839D-02  0.478982D-02
     36  0.152486D-01  0.180934D-01 -0.811696D-02 -0.496852D-02  0.978797D-02
               21            22            23            24            25 
     21  0.968104D-01
     22  0.626443D-02  0.522378D-01
     23 -0.362522D-01  0.602302D-02  0.526626D-01
     24 -0.345703D-01  0.618802D-02  0.598819D-02  0.529858D-01
     25 -0.875573D-02 -0.167833D-02  0.403988D-03  0.218764D-02  0.221518D-01
     26  0.904176D-02  0.171933D-02 -0.585742D-03 -0.193381D-02 -0.489277D-04
     27 -0.902819D-02 -0.168556D-02  0.513787D-03  0.228167D-02  0.679726D-02
     28  0.876931D-02  0.171210D-02 -0.475944D-03 -0.183978D-02 -0.154035D-01
     29 -0.938837D-02 -0.171848D-02  0.665427D-03  0.196007D-02  0.635746D-02
     30  0.840913D-02  0.167918D-02 -0.324304D-03 -0.216138D-02 -0.158433D-01
     31  0.607614D-02 -0.100954D-01  0.893800D-02  0.608409D-03 -0.297535D-02
     32 -0.416917D-02  0.113299D-01 -0.431081D-03 -0.109383D-01 -0.763833D-03
     33 -0.166862D-02  0.373030D-03 -0.965601D-02  0.117867D-01 -0.382482D-02
     34  0.206519D-02 -0.120514D-01  0.105072D-01  0.585583D-04  0.208397D-02
     35 -0.818012D-02  0.937389D-02  0.113814D-02 -0.114881D-01  0.429549D-02
     36 -0.567957D-02 -0.158296D-02 -0.808679D-02  0.112368D-01  0.123451D-02
               26            27            28            29            30 
     26  0.232362D-01
     27 -0.159366D-01  0.227091D-01
     28  0.734857D-02 -0.247145D-04  0.227273D-01
     29 -0.170370D-01  0.689972D-02 -0.164948D-01  0.226625D-01
     30  0.624810D-02 -0.158341D-01  0.625726D-02 -0.732030D-03  0.213593D-01
     31  0.125170D-02 -0.458839D-03  0.376822D-02 -0.307520D-02  0.115186D-02
     32 -0.122541D-02  0.183053D-02  0.136895D-02 -0.457688D-03 -0.919263D-03
     33  0.123447D-02 -0.764253D-03  0.429503D-02 -0.297493D-02  0.208435D-02
     34  0.167724D-03 -0.918961D-03 -0.283521D-02  0.115164D-02 -0.764612D-03
     35 -0.230939D-02  0.137041D-02 -0.523448D-02  0.376915D-02 -0.283574D-02
     36  0.150485D-03 -0.122438D-02 -0.230840D-02  0.125190D-02  0.167876D-03
               31            32            33            34            35 
     31  0.226628D-01
     32  0.689987D-02  0.227108D-01
     33  0.635634D-02  0.679679D-02  0.221523D-01
     34 -0.730188D-03 -0.158333D-01 -0.158425D-01  0.213589D-01
     35 -0.164931D-01 -0.224023D-04 -0.154021D-01  0.625580D-02  0.227265D-01
     36 -0.170366D-01 -0.159364D-01 -0.465671D-04  0.624657D-02  0.734681D-02
               36 
     36  0.232366D-01
 Leave Link  716 at Fri Mar 20 17:41:34 2026, MaxMem=   536870912 cpu:         0.0
 (Enter C:\G09W\l103.exe)

 GradGradGradGradGradGradGradGradGradGradGradGradGradGradGradGradGradGrad
 Berny optimization.
 Red2BG is reusing G-inverse.
 Internal  Forces:  Max     0.000018887 RMS     0.000006028
 Search for a local minimum.
 Step number   1 out of a maximum of    2
 All quantities printed in internal units (Hartrees-Bohrs-Radians)
 Second derivative matrix not updated -- analytic derivatives used.
 ITU=  0
     Eigenvalues ---    0.00241   0.00358   0.05041   0.05137   0.05574
     Eigenvalues ---    0.05713   0.07895   0.08523   0.11027   0.11196
     Eigenvalues ---    0.12740   0.12887   0.15598   0.16026   0.17668
     Eigenvalues ---    0.18932   0.31007   0.34418   0.34533   0.34558
     Eigenvalues ---    0.34928   0.35229   0.35275   0.48403
 Angle between quadratic step and forces=  75.03 degrees.
 Linear search not attempted -- first point.
 Iteration  1 RMS(Cart)=  0.00029692 RMS(Int)=  0.00000006
 Iteration  2 RMS(Cart)=  0.00000006 RMS(Int)=  0.00000000
 ITry= 1 IFail=0 DXMaxC= 8.15D-04 DCOld= 1.00D+10 DXMaxT= 3.00D-01 DXLimC= 3.00D+00 Rises=F
 Variable       Old X    -DE/DX   Delta X   Delta X   Delta X     New X
                                 (Linear)    (Quad)   (Total)
    R1        3.47292  -0.00001   0.00000  -0.00009  -0.00009   3.47283
    R2        2.06753   0.00001   0.00000   0.00002   0.00002   2.06755
    R3        2.06488   0.00000   0.00000  -0.00001  -0.00001   2.06487
    R4        2.06816   0.00000   0.00000   0.00000   0.00000   2.06816
    R5        3.47271   0.00002   0.00000   0.00012   0.00012   3.47284
    R6        2.85615  -0.00001   0.00000  -0.00001  -0.00001   2.85614
    R7        2.06811   0.00002   0.00000   0.00005   0.00005   2.06816
    R8        2.06486   0.00001   0.00000   0.00002   0.00002   2.06487
    R9        2.06752   0.00001   0.00000   0.00003   0.00003   2.06755
    A1        1.91115   0.00001   0.00000   0.00000   0.00000   1.91115
    A2        1.86719   0.00001   0.00000   0.00010   0.00010   1.86729
    A3        1.91943   0.00000   0.00000   0.00003   0.00003   1.91947
    A4        1.91158   0.00000   0.00000   0.00000   0.00000   1.91158
    A5        1.93675  -0.00001   0.00000  -0.00008  -0.00008   1.93667
    A6        1.91643   0.00000   0.00000  -0.00004  -0.00004   1.91639
    A7        1.67180   0.00000   0.00000   0.00000   0.00000   1.67181
    A8        1.87632   0.00000   0.00000  -0.00001  -0.00001   1.87632
    A9        1.87635   0.00000   0.00000  -0.00004  -0.00004   1.87632
   A10        1.91939   0.00001   0.00000   0.00008   0.00008   1.91947
   A11        1.86735   0.00000   0.00000  -0.00006  -0.00006   1.86729
   A12        1.91120   0.00000   0.00000  -0.00005  -0.00005   1.91115
   A13        1.91640   0.00000   0.00000  -0.00001  -0.00001   1.91639
   A14        1.93663   0.00000   0.00000   0.00004   0.00004   1.93667
   A15        1.91158   0.00000   0.00000  -0.00001  -0.00001   1.91158
    D1        1.02474   0.00000   0.00000   0.00053   0.00053   1.02528
    D2       -0.90257   0.00000   0.00000   0.00057   0.00057  -0.90200
    D3        3.09492   0.00000   0.00000   0.00058   0.00058   3.09550
    D4        1.16760   0.00000   0.00000   0.00062   0.00062   1.16823
    D5       -1.10776   0.00000   0.00000   0.00061   0.00061  -1.10715
    D6       -3.03508   0.00000   0.00000   0.00065   0.00065  -3.03443
    D7        1.10706   0.00000   0.00000   0.00011   0.00011   1.10717
    D8       -3.09559   0.00000   0.00000   0.00011   0.00011  -3.09549
    D9       -1.02530   0.00000   0.00000   0.00004   0.00004  -1.02526
   D10        3.03435   0.00000   0.00000   0.00010   0.00010   3.03445
   D11       -1.16830   0.00000   0.00000   0.00010   0.00010  -1.16821
   D12        0.90199   0.00000   0.00000   0.00003   0.00003   0.90202
         Item               Value     Threshold  Converged?
 Maximum Force            0.000019     0.000450     YES
 RMS     Force            0.000006     0.000300     YES
 Maximum Displacement     0.000815     0.001800     YES
 RMS     Displacement     0.000297     0.001200     YES
 Predicted change in Energy=-6.989849D-09
 Optimization completed.
    -- Stationary point found.
                           ----------------------------
                           !   Optimized Parameters   !
                           ! (Angstroms and Degrees)  !
 --------------------------                            --------------------------
 ! Name  Definition              Value          Derivative Info.                !
 --------------------------------------------------------------------------------
 ! R1    R(1,2)                  1.8378         -DE/DX =    0.0                 !
 ! R2    R(1,5)                  1.0941         -DE/DX =    0.0                 !
 ! R3    R(1,6)                  1.0927         -DE/DX =    0.0                 !
 ! R4    R(1,7)                  1.0944         -DE/DX =    0.0                 !
 ! R5    R(2,3)                  1.8377         -DE/DX =    0.0                 !
 ! R6    R(2,4)                  1.5114         -DE/DX =    0.0                 !
 ! R7    R(3,8)                  1.0944         -DE/DX =    0.0                 !
 ! R8    R(3,9)                  1.0927         -DE/DX =    0.0                 !
 ! R9    R(3,10)                 1.0941         -DE/DX =    0.0                 !
 ! A1    A(2,1,5)              109.5006         -DE/DX =    0.0                 !
 ! A2    A(2,1,6)              106.9823         -DE/DX =    0.0                 !
 ! A3    A(2,1,7)              109.9754         -DE/DX =    0.0                 !
 ! A4    A(5,1,6)              109.5255         -DE/DX =    0.0                 !
 ! A5    A(5,1,7)              110.9676         -DE/DX =    0.0                 !
 ! A6    A(6,1,7)              109.8035         -DE/DX =    0.0                 !
 ! A7    A(1,2,3)               95.7873         -DE/DX =    0.0                 !
 ! A8    A(1,2,4)              107.5054         -DE/DX =    0.0                 !
 ! A9    A(3,2,4)              107.507          -DE/DX =    0.0                 !
 ! A10   A(2,3,8)              109.9729         -DE/DX =    0.0                 !
 ! A11   A(2,3,9)              106.9913         -DE/DX =    0.0                 !
 ! A12   A(2,3,10)             109.5035         -DE/DX =    0.0                 !
 ! A13   A(8,3,9)              109.8015         -DE/DX =    0.0                 !
 ! A14   A(8,3,10)             110.9606         -DE/DX =    0.0                 !
 ! A15   A(9,3,10)             109.5256         -DE/DX =    0.0                 !
 ! D1    D(5,1,2,3)             58.7135         -DE/DX =    0.0                 !
 ! D2    D(5,1,2,4)            -51.7135         -DE/DX =    0.0                 !
 ! D3    D(6,1,2,3)            177.3258         -DE/DX =    0.0                 !
 ! D4    D(6,1,2,4)             66.8988         -DE/DX =    0.0                 !
 ! D5    D(7,1,2,3)            -63.4701         -DE/DX =    0.0                 !
 ! D6    D(7,1,2,4)           -173.8971         -DE/DX =    0.0                 !
 ! D7    D(1,2,3,8)             63.4298         -DE/DX =    0.0                 !
 ! D8    D(1,2,3,9)           -177.3645         -DE/DX =    0.0                 !
 ! D9    D(1,2,3,10)           -58.7454         -DE/DX =    0.0                 !
 ! D10   D(4,2,3,8)            173.8554         -DE/DX =    0.0                 !
 ! D11   D(4,2,3,9)            -66.9389         -DE/DX =    0.0                 !
 ! D12   D(4,2,3,10)            51.6802         -DE/DX =    0.0                 !
 --------------------------------------------------------------------------------
 GradGradGradGradGradGradGradGradGradGradGradGradGradGradGradGradGradGrad

 Leave Link  103 at Fri Mar 20 17:41:35 2026, MaxMem=   536870912 cpu:         1.0
 (Enter C:\G09W\l9999.exe)
 1|1|UNPC-DESKTOP-GS7R1K3|Freq|RB3LYP|6-31G(d)|C2H6O1S1|1172|20-Mar-202
 6|0||#P Geom=AllCheck Guess=TCheck SCRF=Check GenChk RB3LYP/6-31G(d) F
 req||dimethylsulfoxide ml||0,1|C,-1.1688667478,-0.387663616,-0.6157894
 02|S,0.0157069385,0.9954451403,-0.3682636528|C,1.3069994351,-0.0131786
 163,0.463791046|O,-0.5767092668,1.9212349372,0.6691948693|H,-1.4283463
 348,-0.8241546475,0.3533219626|H,-2.0639864078,0.0373251888,-1.0763425
 611|H,-0.7318074198,-1.1399447467,-1.2797293436|H,1.6878077353,-0.7743
 119295,-0.2242271956|H,2.113289642,0.6687955256,0.7444057138|H,0.88764
 54262,-0.473443236,1.3634135633||Version=EM64W-G09RevD.01|State=1-A|HF
 =-553.1869359|RMSD=4.636e-009|RMSF=8.328e-006|ZeroPoint=0.0798751|Ther
 mal=0.0855312|Dipole=0.4512687,-1.3673329,-0.5605323|DipoleDeriv=-0.11
 97111,-0.0897516,-0.0424539,-0.1175852,-0.2176775,-0.074985,0.0087343,
 0.0514581,-0.0134979,0.7491397,-0.2009318,0.0336476,-0.1032668,1.16968
 55,0.0856242,-0.000178,0.3093938,0.626672,-0.1244025,0.041506,-0.04218
 68,0.1459585,-0.1579166,0.0402366,-0.1199377,0.0895759,-0.0686548,-0.5
 312977,0.2597851,0.0753149,0.062977,-0.8292483,-0.0162042,0.1435212,-0
 .4673336,-0.6263307,0.0438957,-0.0610956,-0.0067473,-0.067448,-0.00225
 41,0.0260198,0.0278457,0.0498254,-0.044949,-0.0321646,0.0198707,-0.066
 4868,0.0198572,0.0466891,0.0140707,-0.0545779,0.0220271,0.0658603,0.01
 19673,0.0214358,0.0383177,-0.0036164,-0.0379746,-0.0865111,0.039259,-0
 .0660902,0.020506,0.0250474,0.0521106,0.008106,0.0838968,-0.0204445,-0
 .0537867,0.0048396,-0.0587961,-0.0100703,-0.0202537,-0.0517903,-0.0405
 506,-0.0473404,0.0254754,-0.0120269,-0.054003,-0.0098583,0.075156,-0.0
 022206,0.008861,0.0430392,0.0265673,0.0236656,0.0775626,0.0044966,0.07
 97978,-0.0246916|Polar=45.6668225,-1.4448265,44.7795946,3.6615402,4.10
 28487,37.2254892|PG=C01 [X(C2H6O1S1)]|NImag=0||0.48003051,-0.11477394,
 0.44861835,-0.02477598,-0.02227782,0.56999739,-0.09222217,-0.03938092,
 0.03102395,0.31553795,-0.03370099,-0.08996430,0.02572408,-0.06649608,0
 .37095951,-0.00678212,-0.00772631,-0.05626352,-0.08352109,0.11704160,0
 .42003436,-0.01734782,0.00876829,-0.01591123,-0.07083017,0.00796467,-0
 .00477209,0.45643199,-0.01766260,0.01302363,-0.00872803,0.03180224,-0.
 07341660,0.02221041,0.08768507,0.51043799,-0.00245200,0.00482680,-0.00
 028223,-0.04887140,0.03041203,-0.09428895,-0.07356295,0.06017914,0.531
 93018,0.01396647,-0.00482822,-0.01708008,-0.11553921,0.09720381,0.1131
 1045,-0.00328397,0.01374611,0.02048758,0.10199780,0.01511296,-0.014641
 78,-0.02562117,0.08374351,-0.18674072,-0.14514214,0.01110164,-0.012049
 55,-0.02055139,-0.10907530,0.21317558,0.00443951,-0.00700178,0.0035300
 1,0.11778067,-0.17600850,-0.26057383,-0.00703066,0.00050423,0.01819019
 ,-0.11543204,0.18839373,0.23454217,-0.05986928,-0.02184892,0.05962304,
 -0.01336682,-0.01465577,0.01758894,0.00153952,0.00046752,0.00155887,0.
 00321120,0.00377816,-0.00278464,0.06279409,-0.02015783,-0.08941045,0.1
 0034390,-0.01516341,-0.01413739,0.01982359,0.00253003,0.00064939,-0.00
 028313,0.00469694,0.00423785,-0.00315367,0.02640922,0.09054622,0.05589
 280,0.09587412,-0.26693042,-0.00421275,-0.00399090,0.00503500,0.000244
 77,-0.00105327,0.00123352,0.00051171,0.00221180,0.00049139,-0.05995801
 ,-0.10548699,0.28360580,-0.23344391,0.09349287,-0.09666880,-0.01553730
 ,0.00820692,-0.00633374,-0.00304415,-0.00437132,0.00010129,0.00260610,
 -0.00052300,0.00020406,0.00857870,-0.00352855,0.00405746,0.24892940,0.
 09107133,-0.08875850,0.04594776,-0.01949654,0.00846018,-0.00920015,-0.
 00376963,-0.00494855,-0.00058728,0.00215206,0.00101168,0.00104464,0.01
 073232,-0.00451065,0.00401747,-0.09723813,0.09486233,-0.09521966,0.048
 05623,-0.09944925,-0.00262044,0.00095053,-0.00134696,-0.00078123,-0.00
 083777,0.00002652,0.00130980,-0.00015578,-0.00052244,-0.02415003,0.010
 24895,-0.01015494,0.10388918,-0.05155532,0.10076916,-0.09071863,0.0752
 0101,0.06656440,0.01054688,-0.00912937,-0.01179213,-0.00013269,0.00137
 073,0.00040850,-0.00307882,-0.00627251,-0.00114466,-0.00289642,0.00525
 677,0.00268598,-0.00805308,0.01778927,0.01769241,0.09517750,0.07870214
 ,-0.17662702,-0.11483201,0.01152912,-0.00948986,-0.01051792,0.00082113
 ,0.00091735,0.00033355,-0.00395280,-0.00532627,-0.00088374,-0.00551694
 ,0.01183414,0.00848624,0.00327522,-0.00732207,-0.00690043,-0.08406340,
 0.18532840,0.06931735,-0.11262565,-0.14930397,0.00081299,-0.00092849,-
 0.00351073,0.00019296,0.00027887,-0.00017831,-0.00047474,-0.00151760,0
 .00108393,0.00951752,-0.02066482,-0.01355642,-0.00482018,0.01106480,0.
 00969349,-0.07378541,0.12404691,0.15545636,0.00065571,-0.00118262,0.00
 017700,-0.00474562,0.00980825,0.01521921,-0.07874654,0.06586249,0.0629
 3788,-0.00390880,0.00539608,-0.00297085,-0.00020735,0.00001398,0.00003
 765,0.00039649,-0.00004570,-0.00015962,-0.00103109,-0.00061076,-0.0006
 9220,0.08028832,-0.00082046,0.00026709,-0.00047043,0.00113596,-0.00785
 396,-0.00995256,0.06474526,-0.18058445,-0.12227754,0.00327265,-0.00244
 902,0.00204564,0.00008821,0.00006908,0.00006405,-0.00012485,-0.0000048
 4,0.00024715,-0.00009472,0.00064690,0.00021765,-0.07050519,0.18993917,
 0.00045716,-0.00084440,-0.00031214,-0.00154358,0.00798059,0.01014055,0
 .05936354,-0.11901196,-0.15735514,-0.00370718,0.00313364,-0.00096393,-
 0.00006900,-0.00011598,-0.00001352,0.00023169,0.00029014,0.00003035,-0
 .00080121,-0.00002410,0.00026956,-0.06501822,0.13228772,0.16577693,-0.
 00346284,0.00362171,-0.00296300,-0.01419186,-0.01280745,-0.00614015,-0
 .19815016,-0.13286876,-0.04949072,0.00201626,0.00098659,0.00224234,0.0
 0058412,0.00050832,-0.00000939,-0.00074199,-0.00140393,-0.00030239,0.0
 0028370,-0.00003317,-0.00006400,0.01131625,0.00816658,0.00352854,0.209
 91348,0.00312508,-0.00268691,0.00198303,0.01310934,0.01018352,0.004944
 63,-0.12984555,-0.15713543,-0.04548503,-0.00183460,0.00064771,-0.00034
 696,0.00009278,-0.00020390,-0.00013379,0.00100756,0.00149685,0.0001481
 7,-0.00007478,0.00000761,0.00024012,-0.01716772,-0.01231093,-0.0041755
 3,0.14030357,0.16752135,-0.00212063,0.00247600,-0.00181307,-0.00924824
 ,-0.00930384,-0.00440735,-0.05114584,-0.04621737,-0.06639131,0.0011871
 8,0.00052226,0.00042574,-0.00017030,0.00000966,0.00016555,-0.00083828,
 -0.00098534,0.00043153,0.00031570,0.00036614,0.00013045,-0.01522688,-0
 .01101235,-0.00468793,0.05680220,0.04737516,0.06714630,0.00241197,0.00
 093074,0.00001070,0.00034834,0.01360601,-0.02657728,-0.08643601,-0.046
 03147,0.08888294,0.00201299,-0.00424813,0.00469627,-0.00036775,-0.0005
 6546,0.00074979,0.00030975,0.00020894,0.00034199,-0.00009734,-0.000150
 54,-0.00000429,-0.00401736,-0.00586344,0.00755826,-0.00756696,-0.00871
 567,0.02044510,0.09340237,-0.00089568,0.00017987,-0.00206930,-0.000783
 22,-0.00800038,0.01851883,-0.05000089,-0.09689377,0.09343285,-0.001380
 65,0.00213452,-0.00459360,0.00045340,0.00092570,0.00001126,-0.00019672
 ,-0.00028642,-0.00020172,0.00001700,0.00003081,-0.00011177,0.00843119,
 0.01228097,-0.01952011,-0.00647347,-0.00751988,0.01676969,0.05082902,0
 .09714858,0.00124357,-0.00075719,0.00082718,0.00039987,0.00812291,-0.0
 1481856,0.09340274,0.09267576,-0.23288449,0.00008733,-0.00127336,0.003
 79678,-0.00115639,-0.00072150,0.00012402,0.00017733,-0.00003671,0.0005
 2252,-0.00014357,-0.00007465,-0.00008438,0.00569603,0.00885067,-0.0128
 8473,-0.00360343,-0.00454979,0.00900010,-0.09610347,-0.10223613,0.2464
 0156||-0.00000951,-0.00002367,0.00000201,0.00002182,-0.00000926,0.0000
 0732,-0.00000577,0.00000390,-0.00000457,-0.00000429,0.00000517,0.00000
 461,0.00000375,0.00000597,-0.00000359,-0.00000202,0.00000596,0.0000027
 6,0.00000351,0.00000342,-0.00000594,-0.00000982,0.00001264,0.00000800,
 -0.00000395,-0.00000436,-0.00000003,0.00000627,0.00000023,-0.00001057|
 ||@


 A COMPLEXITY IS MERELY A DISARRANGEMENT OF SIMPLICITIES.

                                    -- G. O. ABELL IN "EXPLORATION OF THE UNIVERSE"
 Job cpu time:       0 days  0 hours  0 minutes 27.0 seconds.
 File lengths (MBytes):  RWF=     11 Int=      0 D2E=      0 Chk=      2 Scr=      1
 Normal termination of Gaussian 09 at Fri Mar 20 17:41:35 2026.
