 Entering Gaussian System, Link 0=C:\G09W\g09.exe
 Input=dimethylsulfoxide_rdkit.com
 Output=C:\workspace\delta_chem\data\raw\benchmark_new\dimethylsulfoxide\dimethylsulfoxide_rdkit.out
 Initial command:
 C:\G09W\l1.exe ".\Gau-17580.inp" "C:\workspace\delta_chem\data\raw\benchmark_new\dimethylsulfoxide\dimethylsulfoxide_rdkit.out" /scrdir=".\"
 Entering Link 1 = C:\G09W\l1.exe PID=     17424.
  
 Copyright (c) 1988,1990,1992,1993,1995,1998,2003,2009,2013,
            Gaussian, Inc.  All Rights Reserved.
  
 This is part of the Gaussian(R) 09 program.  It is based on
 the Gaussian(R) 03 system (copyright 2003, Gaussian, Inc.),
 the Gaussian(R) 98 system (copyright 1998, Gaussian, Inc.),
 the Gaussian(R) 94 system (copyright 1995, Gaussian, Inc.),
 the Gaussian 92(TM) system (copyright 1992, Gaussian, Inc.),
 the Gaussian 90(TM) system (copyright 1990, Gaussian, Inc.),
 the Gaussian 88(TM) system (copyright 1988, Gaussian, Inc.),
 the Gaussian 86(TM) system (copyright 1986, Carnegie Mellon
 University), and the Gaussian 82(TM) system (copyright 1983,
 Carnegie Mellon University). Gaussian is a federally registered
 trademark of Gaussian, Inc.
  
 This software contains proprietary and confidential information,
 including trade secrets, belonging to Gaussian, Inc.
  
 This software is provided under written license and may be
 used, copied, transmitted, or stored only in accord with that
 written license.
  
 The following legend is applicable only to US Government
 contracts under FAR:
  
                    RESTRICTED RIGHTS LEGEND
  
 Use, reproduction and disclosure by the US Government is
 subject to restrictions as set forth in subparagraphs (a)
 and (c) of the Commercial Computer Software - Restricted
 Rights clause in FAR 52.227-19.
  
 Gaussian, Inc.
 340 Quinnipiac St., Bldg. 40, Wallingford CT 06492
  
  
 ---------------------------------------------------------------
 Warning -- This program may not be used in any manner that
 competes with the business of Gaussian, Inc. or will provide
 assistance to any competitor of Gaussian, Inc.  The licensee
 of this program is prohibited from giving any competitor of
 Gaussian, Inc. access to this program.  By using this program,
 the user acknowledges that Gaussian, Inc. is engaged in the
 business of creating and licensing software in the field of
 computational chemistry and represents and warrants to the
 licensee that it is not a competitor of Gaussian, Inc. and that
 it will not use this program in any manner prohibited above.
 ---------------------------------------------------------------
  

 Cite this work as:
 Gaussian 09, Revision D.01,
 M. J. Frisch, G. W. Trucks, H. B. Schlegel, G. E. Scuseria, 
 M. A. Robb, J. R. Cheeseman, G. Scalmani, V. Barone, B. Mennucci, 
 G. A. Petersson, H. Nakatsuji, M. Caricato, X. Li, H. P. Hratchian, 
 A. F. Izmaylov, J. Bloino, G. Zheng, J. L. Sonnenberg, M. Hada, 
 M. Ehara, K. Toyota, R. Fukuda, J. Hasegawa, M. Ishida, T. Nakajima, 
 Y. Honda, O. Kitao, H. Nakai, T. Vreven, J. A. Montgomery, Jr., 
 J. E. Peralta, F. Ogliaro, M. Bearpark, J. J. Heyd, E. Brothers, 
 K. N. Kudin, V. N. Staroverov, T. Keith, R. Kobayashi, J. Normand, 
 K. Raghavachari, A. Rendell, J. C. Burant, S. S. Iyengar, J. Tomasi, 
 M. Cossi, N. Rega, J. M. Millam, M. Klene, J. E. Knox, J. B. Cross, 
 V. Bakken, C. Adamo, J. Jaramillo, R. Gomperts, R. E. Stratmann, 
 O. Yazyev, A. J. Austin, R. Cammi, C. Pomelli, J. W. Ochterski, 
 R. L. Martin, K. Morokuma, V. G. Zakrzewski, G. A. Voth, 
 P. Salvador, J. J. Dannenberg, S. Dapprich, A. D. Daniels, 
 O. Farkas, J. B. Foresman, J. V. Ortiz, J. Cioslowski, 
 and D. J. Fox, Gaussian, Inc., Wallingford CT, 2013.
 
 ******************************************
 Gaussian 09:  EM64W-G09RevD.01 13-Apr-2013
                20-Mar-2026 
 ******************************************
 %NProcShared=4
 Will use up to    4 processors via shared memory.
 %Mem=4GB
 %Chk=dimethylsulfoxide_rdkit.chk
 --------------------------
 #p opt freq B3LYP/6-31G(d)
 --------------------------
 1/14=-1,18=20,19=15,26=3,38=1/1,3;
 2/9=110,12=2,17=6,18=5,40=1/2;
 3/5=1,6=6,7=1,11=2,16=1,25=1,30=1,71=1,74=-5/1,2,3;
 4//1;
 5/5=2,38=5/2;
 6/7=2,8=2,9=2,10=2,28=1/1;
 7//1,2,3,16;
 1/14=-1,18=20,19=15,26=3/3(2);
 2/9=110/2;
 99//99;
 2/9=110/2;
 3/5=1,6=6,7=1,11=2,16=1,25=1,30=1,71=1,74=-5/1,2,3;
 4/5=5,16=3,69=1/1;
 5/5=2,38=5/2;
 7//1,2,3,16;
 1/14=-1,18=20,19=15,26=3/3(-5);
 2/9=110/2;
 6/7=2,8=2,9=2,10=2,19=2,28=1/1;
 99/9=1/99;
 Leave Link    1 at Fri Mar 20 17:39:04 2026, MaxMem=   536870912 cpu:         0.0
 (Enter C:\G09W\l101.exe)
 -----------------------
 dimethylsulfoxide rdkit
 -----------------------
 Symbolic Z-matrix:
 Charge =  0 Multiplicity = 1
 C                    -1.15563  -0.37612  -0.60796 
 S                     0.00877   0.98752  -0.36804 
 C                     1.28148  -0.0027    0.45208 
 O                    -0.57955   1.90733   0.66051 
 H                    -1.41482  -0.81961   0.35638 
 H                    -2.05895   0.01662  -1.08065 
 H                    -0.70568  -1.12951  -1.25868 
 H                     1.64653  -0.7691   -0.23557 
 H                     2.1078    0.65507   0.73172 
 H                     0.87005  -0.4695    1.35021 
 
 NAtoms=     10 NQM=       10 NQMF=       0 NMMI=      0 NMMIF=      0
                NMic=       0 NMicF=      0.
                    Isotopes and Nuclear Properties:
 (Nuclear quadrupole moments (NQMom) in fm**2, nuclear magnetic moments (NMagM)
  in nuclear magnetons)

  Atom         1           2           3           4           5           6           7           8           9          10
 IAtWgt=          12          32          12          16           1           1           1           1           1           1
 AtmWgt=  12.0000000  31.9720718  12.0000000  15.9949146   1.0078250   1.0078250   1.0078250   1.0078250   1.0078250   1.0078250
 NucSpn=           0           0           0           0           1           1           1           1           1           1
 AtZEff=   0.0000000   0.0000000   0.0000000   0.0000000   0.0000000   0.0000000   0.0000000   0.0000000   0.0000000   0.0000000
 NQMom=    0.0000000   0.0000000   0.0000000   0.0000000   0.0000000   0.0000000   0.0000000   0.0000000   0.0000000   0.0000000
 NMagM=    0.0000000   0.0000000   0.0000000   0.0000000   2.7928460   2.7928460   2.7928460   2.7928460   2.7928460   2.7928460
 AtZNuc=   6.0000000  16.0000000   6.0000000   8.0000000   1.0000000   1.0000000   1.0000000   1.0000000   1.0000000   1.0000000
 Leave Link  101 at Fri Mar 20 17:39:05 2026, MaxMem=   536870912 cpu:         0.0
 (Enter C:\G09W\l103.exe)

 GradGradGradGradGradGradGradGradGradGradGradGradGradGradGradGradGradGrad
 Berny optimization.
 Initialization pass.
                           ----------------------------
                           !    Initial Parameters    !
                           ! (Angstroms and Degrees)  !
 --------------------------                            --------------------------
 ! Name  Definition              Value          Derivative Info.                !
 --------------------------------------------------------------------------------
 ! R1    R(1,2)                  1.8091         estimate D2E/DX2                !
 ! R2    R(1,5)                  1.0926         estimate D2E/DX2                !
 ! R3    R(1,6)                  1.0925         estimate D2E/DX2                !
 ! R4    R(1,7)                  1.0925         estimate D2E/DX2                !
 ! R5    R(2,3)                  1.8091         estimate D2E/DX2                !
 ! R6    R(2,4)                  1.5            estimate D2E/DX2                !
 ! R7    R(3,8)                  1.0925         estimate D2E/DX2                !
 ! R8    R(3,9)                  1.0925         estimate D2E/DX2                !
 ! R9    R(3,10)                 1.0926         estimate D2E/DX2                !
 ! A1    A(2,1,5)              109.9727         estimate D2E/DX2                !
 ! A2    A(2,1,6)              108.5766         estimate D2E/DX2                !
 ! A3    A(2,1,7)              109.4942         estimate D2E/DX2                !
 ! A4    A(5,1,6)              109.3676         estimate D2E/DX2                !
 ! A5    A(5,1,7)              110.0907         estimate D2E/DX2                !
 ! A6    A(6,1,7)              109.3131         estimate D2E/DX2                !
 ! A7    A(1,2,3)               95.7587         estimate D2E/DX2                !
 ! A8    A(1,2,4)              107.5002         estimate D2E/DX2                !
 ! A9    A(3,2,4)              107.5001         estimate D2E/DX2                !
 ! A10   A(2,3,8)              109.4941         estimate D2E/DX2                !
 ! A11   A(2,3,9)              108.5765         estimate D2E/DX2                !
 ! A12   A(2,3,10)             109.9727         estimate D2E/DX2                !
 ! A13   A(8,3,9)              109.313          estimate D2E/DX2                !
 ! A14   A(8,3,10)             110.091          estimate D2E/DX2                !
 ! A15   A(9,3,10)             109.3676         estimate D2E/DX2                !
 ! D1    D(5,1,2,3)             58.4235         estimate D2E/DX2                !
 ! D2    D(5,1,2,4)            -51.9842         estimate D2E/DX2                !
 ! D3    D(6,1,2,3)            178.0528         estimate D2E/DX2                !
 ! D4    D(6,1,2,4)             67.6451         estimate D2E/DX2                !
 ! D5    D(7,1,2,3)            -62.6657         estimate D2E/DX2                !
 ! D6    D(7,1,2,4)           -173.0734         estimate D2E/DX2                !
 ! D7    D(1,2,3,8)             62.6656         estimate D2E/DX2                !
 ! D8    D(1,2,3,9)           -178.0531         estimate D2E/DX2                !
 ! D9    D(1,2,3,10)           -58.4238         estimate D2E/DX2                !
 ! D10   D(4,2,3,8)            173.0734         estimate D2E/DX2                !
 ! D11   D(4,2,3,9)            -67.6453         estimate D2E/DX2                !
 ! D12   D(4,2,3,10)            51.984          estimate D2E/DX2                !
 --------------------------------------------------------------------------------
 Trust Radius=3.00D-01 FncErr=1.00D-07 GrdErr=1.00D-06
 Number of steps in this run=     46 maximum allowed number of steps=    100.
 GradGradGradGradGradGradGradGradGradGradGradGradGradGradGradGradGradGrad

 Leave Link  103 at Fri Mar 20 17:39:05 2026, MaxMem=   536870912 cpu:         0.0
 (Enter C:\G09W\l202.exe)
                          Input orientation:                          
 ---------------------------------------------------------------------
 Center     Atomic      Atomic             Coordinates (Angstroms)
 Number     Number       Type             X           Y           Z
 ---------------------------------------------------------------------
      1          6           0       -1.155631   -0.376124   -0.607962
      2         16           0        0.008767    0.987521   -0.368036
      3          6           0        1.281477   -0.002698    0.452084
      4          8           0       -0.579546    1.907333    0.660508
      5          1           0       -1.414818   -0.819605    0.356379
      6          1           0       -2.058948    0.016616   -1.080648
      7          1           0       -0.705675   -1.129512   -1.258684
      8          1           0        1.646528   -0.769095   -0.235569
      9          1           0        2.107799    0.655066    0.731718
     10          1           0        0.870047   -0.469503    1.350208
 ---------------------------------------------------------------------
                    Distance matrix (angstroms):
                    1          2          3          4          5
     1  C    0.000000
     2  S    1.809120   0.000000
     3  C    2.683773   1.809122   0.000000
     4  O    2.674896   1.500023   2.674895   0.000000
     5  H    1.092615   2.411861   2.818954   2.868164   0.000000
     6  H    1.092547   2.392889   3.675334   2.965648   1.783036
     7  H    1.092471   2.405309   2.853981   3.594667   1.790909
     8  H    2.853979   2.405308   1.092471   3.594666   3.118460
     9  H    3.675333   2.392890   1.092546   2.965648   3.837234
    10  H    2.818957   2.411863   1.092615   2.868162   2.516123
                    6          7          8          9         10
     6  H    0.000000
     7  H    1.782317   0.000000
     8  H    3.880986   2.590275   0.000000
     9  H    4.588471   3.880986   1.782316   0.000000
    10  H    3.837237   3.118466   1.790912   1.783035   0.000000
 Stoichiometry    C2H6OS
 Framework group  C1[X(C2H6OS)]
 Deg. of freedom    24
 Full point group                 C1      NOp   1
 Largest Abelian subgroup         C1      NOp   1
 Largest concise Abelian subgroup C1      NOp   1
                         Standard orientation:                         
 ---------------------------------------------------------------------
 Center     Atomic      Atomic             Coordinates (Angstroms)
 Number     Number       Type             X           Y           Z
 ---------------------------------------------------------------------
      1          6           0       -1.341886   -0.808628    0.177771
      2         16           0       -0.000001    0.238463   -0.435301
      3          6           0        1.341887   -0.808629    0.177770
      4          8           0        0.000001    1.496304    0.381953
      5          1           0       -1.258060   -0.926790    1.260738
      6          1           0       -2.294236   -0.329788   -0.061814
      7          1           0       -1.295138   -1.784570   -0.310947
      8          1           0        1.295136   -1.784571   -0.310948
      9          1           0        2.294235   -0.329790   -0.061819
     10          1           0        1.258064   -0.926787    1.260739
 ---------------------------------------------------------------------
 Rotational constants (GHZ):      6.9345492      6.8530544      4.1540417
 Leave Link  202 at Fri Mar 20 17:39:05 2026, MaxMem=   536870912 cpu:         0.0
 (Enter C:\G09W\l301.exe)
 Standard basis: 6-31G(d) (6D, 7F)
 Ernie: Thresh=  0.10000D-02 Tol=  0.10000D-05 Strict=F.
 There are    76 symmetry adapted cartesian basis functions of A   symmetry.
 There are    76 symmetry adapted basis functions of A   symmetry.
    76 basis functions,   160 primitive gaussians,    76 cartesian basis functions
    21 alpha electrons       21 beta electrons
       nuclear repulsion energy       183.5453439893 Hartrees.
 IExCor=  402 DFT=T Ex+Corr=B3LYP ExCW=0 ScaHFX=  0.200000
 ScaDFX=  0.800000  0.720000  1.000000  0.810000 ScalE2=  1.000000  1.000000
 IRadAn=      0 IRanWt=     -1 IRanGd=            0 ICorTp=0 IEmpDi=  4
 NAtoms=   10 NActive=   10 NUniq=   10 SFac= 1.00D+00 NAtFMM=   60 NAOKFM=F Big=F
 Integral buffers will be    131072 words long.
 Raffenetti 2 integral format.
 Two-electron integral symmetry is turned on.
 Leave Link  301 at Fri Mar 20 17:39:06 2026, MaxMem=   536870912 cpu:         1.0
 (Enter C:\G09W\l302.exe)
 NPDir=0 NMtPBC=     1 NCelOv=     1 NCel=       1 NClECP=     1 NCelD=      1
         NCelK=      1 NCelE2=     1 NClLst=     1 CellRange=     0.0.
 One-electron integrals computed using PRISM.
 NBasis=    76 RedAO= T EigKep=  4.65D-03  NBF=    76
 NBsUse=    76 1.00D-06 EigRej= -1.00D+00 NBFU=    76
 Precomputing XC quadrature grid using
 IXCGrd= 4 IRadAn=           0 IRanWt=          -1 IRanGd=           0 AccXCQ= 0.00D+00.
 Generated NRdTot=       0 NPtTot=           0 NUsed=           0 NTot=          32
 NSgBfM=    76    76    76    76    76 MxSgAt=    10 MxSgA2=    10.
 Leave Link  302 at Fri Mar 20 17:39:06 2026, MaxMem=   536870912 cpu:         0.0
 (Enter C:\G09W\l303.exe)
 DipDrv:  MaxL=1.
 Leave Link  303 at Fri Mar 20 17:39:07 2026, MaxMem=   536870912 cpu:         0.0
 (Enter C:\G09W\l401.exe)
 ExpMin= 1.17D-01 ExpMax= 2.19D+04 ExpMxC= 3.30D+03 IAcc=1 IRadAn=         1 AccDes= 0.00D+00
 Harris functional with IExCor=  402 and IRadAn=       1 diagonalized for initial guess.
 HarFok:  IExCor=  402 AccDes= 0.00D+00 IRadAn=         1 IDoV= 1 UseB2=F ITyADJ=14
 ICtDFT=  3500011 ScaDFX=  1.000000  1.000000  1.000000  1.000000
 FoFCou: FMM=F IPFlag=           0 FMFlag=      100000 FMFlg1=           0
         NFxFlg=           0 DoJE=T BraDBF=F KetDBF=T FulRan=T
         wScrn=  0.000000 ICntrl=     500 IOpCl=  0 I1Cent=   200000004 NGrid=           0
         NMat0=    1 NMatS0=      1 NMatT0=    0 NMatD0=    1 NMtDS0=    0 NMtDT0=    0
 Petite list used in FoFCou.
 Harris En= -553.236654315396    
 JPrj=0 DoOrth=F DoCkMO=F.
 Leave Link  401 at Fri Mar 20 17:39:07 2026, MaxMem=   536870912 cpu:         0.0
 (Enter C:\G09W\l502.exe)
 Closed shell SCF:
 Using DIIS extrapolation, IDIIS=  1040.
 Integral symmetry usage will be decided dynamically.
 Keep R1 ints in memory in canonical form, NReq=5217272.
 IVT=       36915 IEndB=       36915 NGot=   536870912 MDV=   532551797
 LenX=   532551797 LenY=   532545580
 Requested convergence on RMS density matrix=1.00D-08 within 128 cycles.
 Requested convergence on MAX density matrix=1.00D-06.
 Requested convergence on             energy=1.00D-06.
 No special actions if energy rises.
 FoFCou: FMM=F IPFlag=           0 FMFlag=           0 FMFlg1=           0
         NFxFlg=           0 DoJE=F BraDBF=F KetDBF=F FulRan=T
         wScrn=  0.000000 ICntrl=     600 IOpCl=  0 I1Cent=           0 NGrid=           0
         NMat0=    1 NMatS0=   2926 NMatT0=    0 NMatD0=    1 NMtDS0=    0 NMtDT0=    0
 Symmetry not used in FoFCou.
 Integral accuracy reduced to 1.0D-05 until final iterations.

 Cycle   1  Pass 0  IDiag  1:
 E= -552.933106621616    
 DIIS: error= 5.47D-02 at cycle   1 NSaved=   1.
 NSaved= 1 IEnMin= 1 EnMin= -552.933106621616     IErMin= 1 ErrMin= 5.47D-02
 ErrMax= 5.47D-02  0.00D+00 EMaxC= 1.00D-01 BMatC= 2.89D-01 BMatP= 2.89D-01
 IDIUse=3 WtCom= 4.53D-01 WtEn= 5.47D-01
 Coeff-Com:  0.100D+01
 Coeff-En:   0.100D+01
 Coeff:      0.100D+01
 Gap=     0.253 Goal=   None    Shift=    0.000
 GapD=    0.253 DampG=1.000 DampE=0.500 DampFc=0.5000 IDamp=-1.
 Damping current iteration by 5.00D-01
 RMSDP=2.79D-02 MaxDP=3.92D-01              OVMax= 3.41D-01

 Cycle   2  Pass 0  IDiag  1:
 E= -552.950731775466     Delta-E=       -0.017625153850 Rises=F Damp=T
 DIIS: error= 3.53D-02 at cycle   2 NSaved=   2.
 NSaved= 2 IEnMin= 2 EnMin= -552.950731775466     IErMin= 2 ErrMin= 3.53D-02
 ErrMax= 3.53D-02  0.00D+00 EMaxC= 1.00D-01 BMatC= 7.02D-02 BMatP= 2.89D-01
 IDIUse=3 WtCom= 6.47D-01 WtEn= 3.53D-01
 Coeff-Com:  0.296D+00 0.704D+00
 Coeff-En:   0.471D+00 0.529D+00
 Coeff:      0.358D+00 0.642D+00
 Gap=     0.267 Goal=   None    Shift=    0.000
 RMSDP=1.07D-02 MaxDP=1.79D-01 DE=-1.76D-02 OVMax= 2.72D-01

 Cycle   3  Pass 0  IDiag  1:
 E= -553.141427659640     Delta-E=       -0.190695884174 Rises=F Damp=F
 DIIS: error= 2.05D-02 at cycle   3 NSaved=   3.
 NSaved= 3 IEnMin= 3 EnMin= -553.141427659640     IErMin= 3 ErrMin= 2.05D-02
 ErrMax= 2.05D-02  0.00D+00 EMaxC= 1.00D-01 BMatC= 4.46D-02 BMatP= 7.02D-02
 IDIUse=3 WtCom= 7.95D-01 WtEn= 2.05D-01
 Coeff-Com:  0.162D+00 0.426D+00 0.412D+00
 Coeff-En:   0.000D+00 0.000D+00 0.100D+01
 Coeff:      0.129D+00 0.339D+00 0.532D+00
 Gap=     0.272 Goal=   None    Shift=    0.000
 RMSDP=4.95D-03 MaxDP=6.88D-02 DE=-1.91D-01 OVMax= 8.44D-02

 Cycle   4  Pass 0  IDiag  1:
 E= -553.178994016808     Delta-E=       -0.037566357168 Rises=F Damp=F
 DIIS: error= 7.86D-03 at cycle   4 NSaved=   4.
 NSaved= 4 IEnMin= 4 EnMin= -553.178994016808     IErMin= 4 ErrMin= 7.86D-03
 ErrMax= 7.86D-03  0.00D+00 EMaxC= 1.00D-01 BMatC= 7.72D-03 BMatP= 4.46D-02
 IDIUse=3 WtCom= 9.21D-01 WtEn= 7.86D-02
 Coeff-Com:  0.210D-01 0.265D-01 0.294D+00 0.659D+00
 Coeff-En:   0.000D+00 0.000D+00 0.154D+00 0.846D+00
 Coeff:      0.194D-01 0.244D-01 0.283D+00 0.674D+00
 Gap=     0.271 Goal=   None    Shift=    0.000
 RMSDP=1.66D-03 MaxDP=2.67D-02 DE=-3.76D-02 OVMax= 2.69D-02

 Cycle   5  Pass 0  IDiag  1:
 E= -553.186046392066     Delta-E=       -0.007052375258 Rises=F Damp=F
 DIIS: error= 6.47D-04 at cycle   5 NSaved=   5.
 NSaved= 5 IEnMin= 5 EnMin= -553.186046392066     IErMin= 5 ErrMin= 6.47D-04
 ErrMax= 6.47D-04  0.00D+00 EMaxC= 1.00D-01 BMatC= 8.06D-05 BMatP= 7.72D-03
 IDIUse=3 WtCom= 9.94D-01 WtEn= 6.47D-03
 Coeff-Com:  0.376D-03-0.554D-02 0.707D-01 0.228D+00 0.707D+00
 Coeff-En:   0.000D+00 0.000D+00 0.000D+00 0.000D+00 0.100D+01
 Coeff:      0.374D-03-0.550D-02 0.702D-01 0.226D+00 0.709D+00
 Gap=     0.270 Goal=   None    Shift=    0.000
 RMSDP=2.07D-04 MaxDP=2.63D-03 DE=-7.05D-03 OVMax= 2.73D-03

 Cycle   6  Pass 0  IDiag  1:
 E= -553.186124939158     Delta-E=       -0.000078547093 Rises=F Damp=F
 DIIS: error= 1.53D-04 at cycle   6 NSaved=   6.
 NSaved= 6 IEnMin= 6 EnMin= -553.186124939158     IErMin= 6 ErrMin= 1.53D-04
 ErrMax= 1.53D-04  0.00D+00 EMaxC= 1.00D-01 BMatC= 2.27D-06 BMatP= 8.06D-05
 IDIUse=3 WtCom= 9.98D-01 WtEn= 1.53D-03
 Coeff-Com:  0.248D-04-0.278D-02 0.858D-02 0.296D-01 0.177D+00 0.788D+00
 Coeff-En:   0.000D+00 0.000D+00 0.000D+00 0.000D+00 0.000D+00 0.100D+01
 Coeff:      0.248D-04-0.278D-02 0.856D-02 0.295D-01 0.177D+00 0.788D+00
 Gap=     0.271 Goal=   None    Shift=    0.000
 RMSDP=4.88D-05 MaxDP=8.58D-04 DE=-7.85D-05 OVMax= 6.95D-04

 Cycle   7  Pass 0  IDiag  1:
 E= -553.186127229393     Delta-E=       -0.000002290234 Rises=F Damp=F
 DIIS: error= 3.21D-05 at cycle   7 NSaved=   7.
 NSaved= 7 IEnMin= 7 EnMin= -553.186127229393     IErMin= 7 ErrMin= 3.21D-05
 ErrMax= 3.21D-05  0.00D+00 EMaxC= 1.00D-01 BMatC= 1.44D-07 BMatP= 2.27D-06
 IDIUse=1 WtCom= 1.00D+00 WtEn= 0.00D+00
 Coeff-Com:  0.115D-03-0.790D-03 0.706D-03 0.223D-02 0.389D-01 0.315D+00
 Coeff-Com:  0.644D+00
 Coeff:      0.115D-03-0.790D-03 0.706D-03 0.223D-02 0.389D-01 0.315D+00
 Coeff:      0.644D+00
 Gap=     0.271 Goal=   None    Shift=    0.000
 RMSDP=7.55D-06 MaxDP=2.31D-04 DE=-2.29D-06 OVMax= 9.51D-05

 Initial convergence to 1.0D-05 achieved.  Increase integral accuracy.
 Cycle   8  Pass 1  IDiag  1:
 E= -553.186168795558     Delta-E=       -0.000041566166 Rises=F Damp=F
 DIIS: error= 1.45D-05 at cycle   1 NSaved=   1.
 NSaved= 1 IEnMin= 1 EnMin= -553.186168795558     IErMin= 1 ErrMin= 1.45D-05
 ErrMax= 1.45D-05  0.00D+00 EMaxC= 1.00D-01 BMatC= 2.19D-08 BMatP= 2.19D-08
 IDIUse=1 WtCom= 1.00D+00 WtEn= 0.00D+00
 Coeff-Com:  0.100D+01
 Coeff:      0.100D+01
 Gap=     0.271 Goal=   None    Shift=    0.000
 RMSDP=7.55D-06 MaxDP=2.31D-04 DE=-4.16D-05 OVMax= 5.78D-05

 Cycle   9  Pass 1  IDiag  1:
 E= -553.186168816690     Delta-E=       -0.000000021132 Rises=F Damp=F
 DIIS: error= 9.85D-06 at cycle   2 NSaved=   2.
 NSaved= 2 IEnMin= 2 EnMin= -553.186168816690     IErMin= 2 ErrMin= 9.85D-06
 ErrMax= 9.85D-06  0.00D+00 EMaxC= 1.00D-01 BMatC= 6.02D-09 BMatP= 2.19D-08
 IDIUse=1 WtCom= 1.00D+00 WtEn= 0.00D+00
 Coeff-Com:  0.287D+00 0.713D+00
 Coeff:      0.287D+00 0.713D+00
 Gap=     0.271 Goal=   None    Shift=    0.000
 RMSDP=2.18D-06 MaxDP=6.09D-05 DE=-2.11D-08 OVMax= 3.35D-05

 Cycle  10  Pass 1  IDiag  1:
 E= -553.186168818591     Delta-E=       -0.000000001901 Rises=F Damp=F
 DIIS: error= 9.50D-06 at cycle   3 NSaved=   3.
 NSaved= 3 IEnMin= 3 EnMin= -553.186168818591     IErMin= 3 ErrMin= 9.50D-06
 ErrMax= 9.50D-06  0.00D+00 EMaxC= 1.00D-01 BMatC= 4.78D-09 BMatP= 6.02D-09
 IDIUse=1 WtCom= 1.00D+00 WtEn= 0.00D+00
 Coeff-Com:  0.526D-01 0.465D+00 0.483D+00
 Coeff:      0.526D-01 0.465D+00 0.483D+00
 Gap=     0.271 Goal=   None    Shift=    0.000
 RMSDP=1.50D-06 MaxDP=1.96D-05 DE=-1.90D-09 OVMax= 2.49D-05

 Cycle  11  Pass 1  IDiag  1:
 E= -553.186168822087     Delta-E=       -0.000000003496 Rises=F Damp=F
 DIIS: error= 2.80D-06 at cycle   4 NSaved=   4.
 NSaved= 4 IEnMin= 4 EnMin= -553.186168822087     IErMin= 4 ErrMin= 2.80D-06
 ErrMax= 2.80D-06  0.00D+00 EMaxC= 1.00D-01 BMatC= 6.54D-10 BMatP= 4.78D-09
 IDIUse=1 WtCom= 1.00D+00 WtEn= 0.00D+00
 Coeff-Com: -0.136D-01 0.197D+00 0.314D+00 0.503D+00
 Coeff:     -0.136D-01 0.197D+00 0.314D+00 0.503D+00
 Gap=     0.271 Goal=   None    Shift=    0.000
 RMSDP=5.56D-07 MaxDP=8.97D-06 DE=-3.50D-09 OVMax= 8.43D-06

 Cycle  12  Pass 1  IDiag  1:
 E= -553.186168822628     Delta-E=       -0.000000000540 Rises=F Damp=F
 DIIS: error= 1.66D-07 at cycle   5 NSaved=   5.
 NSaved= 5 IEnMin= 5 EnMin= -553.186168822628     IErMin= 5 ErrMin= 1.66D-07
 ErrMax= 1.66D-07  0.00D+00 EMaxC= 1.00D-01 BMatC= 3.30D-12 BMatP= 6.54D-10
 IDIUse=1 WtCom= 1.00D+00 WtEn= 0.00D+00
 Coeff-Com: -0.469D-02 0.385D-01 0.661D-01 0.147D+00 0.753D+00
 Coeff:     -0.469D-02 0.385D-01 0.661D-01 0.147D+00 0.753D+00
 Gap=     0.271 Goal=   None    Shift=    0.000
 RMSDP=4.03D-08 MaxDP=5.51D-07 DE=-5.40D-10 OVMax= 4.69D-07

 Cycle  13  Pass 1  IDiag  1:
 E= -553.186168822630     Delta-E=       -0.000000000002 Rises=F Damp=F
 DIIS: error= 3.02D-08 at cycle   6 NSaved=   6.
 NSaved= 6 IEnMin= 6 EnMin= -553.186168822630     IErMin= 6 ErrMin= 3.02D-08
 ErrMax= 3.02D-08  0.00D+00 EMaxC= 1.00D-01 BMatC= 8.74D-14 BMatP= 3.30D-12
 IDIUse=1 WtCom= 1.00D+00 WtEn= 0.00D+00
 Coeff-Com: -0.535D-03 0.165D-02 0.301D-02 0.185D-01 0.182D+00 0.796D+00
 Coeff:     -0.535D-03 0.165D-02 0.301D-02 0.185D-01 0.182D+00 0.796D+00
 Gap=     0.271 Goal=   None    Shift=    0.000
 RMSDP=8.21D-09 MaxDP=1.26D-07 DE=-2.27D-12 OVMax= 1.07D-07

 SCF Done:  E(RB3LYP) =  -553.186168823     A.U. after   13 cycles
            NFock= 13  Conv=0.82D-08     -V/T= 2.0049
 KE= 5.504964074850D+02 PE=-1.674465726669D+03 EE= 3.872378063726D+02
 Leave Link  502 at Fri Mar 20 17:39:11 2026, MaxMem=   536870912 cpu:         4.0
 (Enter C:\G09W\l601.exe)
 Copying SCF densities to generalized density rwf, IOpCl= 0 IROHF=0.

 **********************************************************************

            Population analysis using the SCF density.

 **********************************************************************

 Orbital symmetries:
       Occupied  (A) (A) (A) (A) (A) (A) (A) (A) (A) (A) (A) (A)
                 (A) (A) (A) (A) (A) (A) (A) (A) (A)
       Virtual   (A) (A) (A) (A) (A) (A) (A) (A) (A) (A) (A) (A)
                 (A) (A) (A) (A) (A) (A) (A) (A) (A) (A) (A) (A)
                 (A) (A) (A) (A) (A) (A) (A) (A) (A) (A) (A) (A)
                 (A) (A) (A) (A) (A) (A) (A) (A) (A) (A) (A) (A)
                 (A) (A) (A) (A) (A) (A) (A)
 The electronic state is 1-A.
 Alpha  occ. eigenvalues --  -88.98432 -19.09662 -10.21239 -10.21238  -8.03180
 Alpha  occ. eigenvalues --   -5.99580  -5.99509  -5.98898  -1.00227  -0.79417
 Alpha  occ. eigenvalues --   -0.72288  -0.60335  -0.46905  -0.45928  -0.45787
 Alpha  occ. eigenvalues --   -0.42542  -0.39755  -0.39431  -0.34997  -0.26100
 Alpha  occ. eigenvalues --   -0.22157
 Alpha virt. eigenvalues --    0.04915   0.05088   0.07969   0.10589   0.11954
 Alpha virt. eigenvalues --    0.14091   0.14950   0.16362   0.17919   0.33848
 Alpha virt. eigenvalues --    0.35890   0.42828   0.43679   0.46712   0.50981
 Alpha virt. eigenvalues --    0.56483   0.56744   0.62154   0.75060   0.77654
 Alpha virt. eigenvalues --    0.79506   0.81853   0.84347   0.85381   0.88851
 Alpha virt. eigenvalues --    0.89389   0.89753   0.91818   0.92942   1.00183
 Alpha virt. eigenvalues --    1.07223   1.09053   1.16431   1.22758   1.31782
 Alpha virt. eigenvalues --    1.50925   1.64885   1.67457   1.73177   1.76402
 Alpha virt. eigenvalues --    1.86819   1.88068   2.05762   2.07835   2.11289
 Alpha virt. eigenvalues --    2.18985   2.20471   2.22095   2.24396   2.26521
 Alpha virt. eigenvalues --    2.77501   3.82792   3.91757   4.18929   4.20987
          Condensed to atoms (all electrons):
               1          2          3          4          5          6
     1  C    5.649783   0.008349   0.006139  -0.052197   0.341280   0.374873
     2  S    0.008349  14.937141   0.008351   0.352761  -0.003663  -0.032142
     3  C    0.006139   0.008351   5.649781  -0.052197  -0.016144   0.004495
     4  O   -0.052197   0.352761  -0.052197   8.367205   0.002099   0.000799
     5  H    0.341280  -0.003663  -0.016144   0.002099   0.524318  -0.026080
     6  H    0.374873  -0.032142   0.004495   0.000799  -0.026080   0.501519
     7  H    0.312224   0.006726  -0.001148   0.001979  -0.022727  -0.022713
     8  H   -0.001148   0.006725   0.312224   0.001979   0.000502  -0.000087
     9  H    0.004495  -0.032142   0.374873   0.000799  -0.000070  -0.000076
    10  H   -0.016144  -0.003663   0.341280   0.002099   0.007807  -0.000070
               7          8          9         10
     1  C    0.312224  -0.001148   0.004495  -0.016144
     2  S    0.006726   0.006725  -0.032142  -0.003663
     3  C   -0.001148   0.312224   0.374873   0.341280
     4  O    0.001979   0.001979   0.000799   0.002099
     5  H   -0.022727   0.000502  -0.000070   0.007807
     6  H   -0.022713  -0.000087  -0.000076  -0.000070
     7  H    0.552685   0.000186  -0.000087   0.000502
     8  H    0.000186   0.552685  -0.022713  -0.022727
     9  H   -0.000087  -0.022713   0.501519  -0.026080
    10  H    0.000502  -0.022727  -0.026080   0.524318
 Mulliken charges:
               1
     1  C   -0.627653
     2  S    0.751558
     3  C   -0.627652
     4  O   -0.625325
     5  H    0.192679
     6  H    0.199483
     7  H    0.172374
     8  H    0.172374
     9  H    0.199483
    10  H    0.192679
 Sum of Mulliken charges =   0.00000
 Mulliken charges with hydrogens summed into heavy atoms:
               1
     1  C   -0.063117
     2  S    0.751558
     3  C   -0.063116
     4  O   -0.625325
 Electronic spatial extent (au):  <R**2>=            363.4763
 Charge=              0.0000 electrons
 Dipole moment (field-independent basis, Debye):
    X=              0.0000    Y=             -3.9113    Z=             -0.5193  Tot=              3.9456
 Quadrupole moment (field-independent basis, Debye-Ang):
   XX=            -28.3681   YY=            -36.0637   ZZ=            -32.5828
   XY=              0.0000   XZ=              0.0000   YZ=             -1.5387
 Traceless Quadrupole moment (field-independent basis, Debye-Ang):
   XX=              3.9701   YY=             -3.7255   ZZ=             -0.2446
   XY=              0.0000   XZ=              0.0000   YZ=             -1.5387
 Octapole moment (field-independent basis, Debye-Ang**2):
  XXX=              0.0000  YYY=             -5.4949  ZZZ=              3.4660  XYY=              0.0000
  XXY=              1.8663  XXZ=             -1.0359  XZZ=              0.0000  YZZ=              0.1449
  YYZ=             -3.1769  XYZ=              0.0000
 Hexadecapole moment (field-independent basis, Debye-Ang**3):
 XXXX=           -201.3675 YYYY=           -196.5282 ZZZZ=            -69.2643 XXXY=              0.0000
 XXXZ=              0.0000 YYYX=              0.0000 YYYZ=              1.9695 ZZZX=              0.0000
 ZZZY=             -0.6477 XXYY=            -68.3910 XXZZ=            -47.7036 YYZZ=            -42.6791
 XXYZ=              0.3386 YYXZ=              0.0000 ZZXY=              0.0000
 N-N= 1.835453439893D+02 E-N=-1.674465727511D+03  KE= 5.504964074850D+02
 No NMR shielding tensors so no spin-rotation constants.
 Leave Link  601 at Fri Mar 20 17:39:11 2026, MaxMem=   536870912 cpu:         0.0
 (Enter C:\G09W\l701.exe)
 Compute integral first derivatives.
 ... and contract with generalized density number  0.
 Leave Link  701 at Fri Mar 20 17:39:12 2026, MaxMem=   536870912 cpu:         0.0
 (Enter C:\G09W\l702.exe)
 L702 exits ... SP integral derivatives will be done elsewhere.
 Leave Link  702 at Fri Mar 20 17:39:12 2026, MaxMem=   536870912 cpu:         0.0
 (Enter C:\G09W\l703.exe)
 Compute integral first derivatives, UseDBF=F ICtDFT=           0.
 Integral derivatives from FoFJK, PRISM(SPDF).
 Calling FoFJK, ICntrl=      2127 FMM=F ISym2X=0 I1Cent= 0 IOpClX= 0 NMat=1 NMatS=1 NMatT=0.
 FoFJK:  IHMeth= 1 ICntrl=    2127 DoSepK=F KAlg= 0 I1Cent=   0 FoldK=F
 IRaf=         0 NMat=   1 IRICut=       1 DoRegI=T DoRafI=F ISym2E= 0.
 FoFCou: FMM=F IPFlag=           0 FMFlag=      100000 FMFlg1=         800
         NFxFlg=           0 DoJE=F BraDBF=F KetDBF=F FulRan=T
         wScrn=  0.000000 ICntrl=    2127 IOpCl=  0 I1Cent=           0 NGrid=           0
         NMat0=    1 NMatS0=      1 NMatT0=    0 NMatD0=    1 NMtDS0=    0 NMtDT0=    0
 Symmetry not used in FoFCou.
 Leave Link  703 at Fri Mar 20 17:39:13 2026, MaxMem=   536870912 cpu:         1.0
 (Enter C:\G09W\l716.exe)
 Dipole        =-1.55573435D-06-1.53882679D+00-2.04301994D-01
 ***** Axes restored to original set *****
 -------------------------------------------------------------------
 Center     Atomic                   Forces (Hartrees/Bohr)
 Number     Number              X              Y              Z
 -------------------------------------------------------------------
      1        6          -0.004797148   -0.008169882   -0.002128512
      2       16           0.002988891    0.005999537   -0.008983568
      3        6           0.006705309   -0.006407204    0.002874412
      4        8          -0.004599055    0.008160086    0.007698586
      5        1          -0.000666881    0.000112875    0.001583309
      6        1           0.000416778    0.001472764    0.000182112
      7        1           0.000103633   -0.001376546   -0.001494681
      8        1           0.001352733   -0.001185363   -0.000950992
      9        1          -0.000773080    0.001290747   -0.000335391
     10        1          -0.000731183    0.000102987    0.001554725
 -------------------------------------------------------------------
 Cartesian Forces:  Max     0.008983568 RMS     0.004000678
 Leave Link  716 at Fri Mar 20 17:39:13 2026, MaxMem=   536870912 cpu:         0.0
 (Enter C:\G09W\l103.exe)

 GradGradGradGradGradGradGradGradGradGradGradGradGradGradGradGradGradGrad
 Berny optimization.
 FormGI is forming the generalized inverse of G from B-inverse, IUseBI=4.
 Internal  Forces:  Max     0.012087796 RMS     0.003173606
 Search for a local minimum.
 Step number   1 out of a maximum of   46
 All quantities printed in internal units (Hartrees-Bohrs-Radians)
 RMS Force = .31736D-02 SwitMx=.10000D-02 MixMth= 1
 Mixed Optimization -- RFO/linear search
 Second derivative matrix not updated -- first step.
 ITU=  0
     Eigenvalues ---    0.00250   0.00250   0.06525   0.07179   0.07179
     Eigenvalues ---    0.07366   0.07366   0.12164   0.16000   0.16000
     Eigenvalues ---    0.16000   0.16000   0.16000   0.16000   0.25000
     Eigenvalues ---    0.25411   0.25411   0.34512   0.34512   0.34520
     Eigenvalues ---    0.34520   0.34529   0.34529   0.76669
 RFO step:  Lambda=-1.16451189D-03 EMin= 2.49639145D-03
 Linear search not attempted -- first point.
 Iteration  1 RMS(Cart)=  0.02286737 RMS(Int)=  0.00015766
 Iteration  2 RMS(Cart)=  0.00014583 RMS(Int)=  0.00004959
 Iteration  3 RMS(Cart)=  0.00000001 RMS(Int)=  0.00004959
 ITry= 1 IFail=0 DXMaxC= 6.46D-02 DCOld= 1.00D+10 DXMaxT= 3.00D-01 DXLimC= 3.00D+00 Rises=F
 Variable       Old X    -DE/DX   Delta X   Delta X   Delta X     New X
                                 (Linear)    (Quad)   (Total)
    R1        3.41874   0.00943   0.00000   0.03693   0.03693   3.45567
    R2        2.06474   0.00151   0.00000   0.00436   0.00436   2.06910
    R3        2.06461   0.00011   0.00000   0.00031   0.00031   2.06492
    R4        2.06447   0.00188   0.00000   0.00543   0.00543   2.06990
    R5        3.41874   0.00943   0.00000   0.03693   0.03693   3.45568
    R6        2.83463   0.01209   0.00000   0.01574   0.01574   2.85038
    R7        2.06447   0.00188   0.00000   0.00543   0.00543   2.06990
    R8        2.06461   0.00011   0.00000   0.00031   0.00031   2.06492
    R9        2.06474   0.00151   0.00000   0.00436   0.00436   2.06910
    A1        1.91939  -0.00035   0.00000  -0.00167  -0.00175   1.91764
    A2        1.89502  -0.00264   0.00000  -0.01957  -0.01960   1.87542
    A3        1.91103   0.00158   0.00000   0.01251   0.01250   1.92353
    A4        1.90883   0.00058   0.00000  -0.00180  -0.00191   1.90691
    A5        1.92145   0.00040   0.00000   0.00861   0.00855   1.92999
    A6        1.90787   0.00039   0.00000   0.00152   0.00157   1.90944
    A7        1.67130   0.00040   0.00000   0.00500   0.00497   1.67627
    A8        1.87623   0.00051   0.00000   0.00795   0.00789   1.88412
    A9        1.87623   0.00051   0.00000   0.00795   0.00789   1.88412
   A10        1.91103   0.00158   0.00000   0.01251   0.01250   1.92353
   A11        1.89502  -0.00264   0.00000  -0.01956  -0.01960   1.87542
   A12        1.91939  -0.00035   0.00000  -0.00167  -0.00175   1.91763
   A13        1.90787   0.00039   0.00000   0.00153   0.00157   1.90945
   A14        1.92145   0.00040   0.00000   0.00861   0.00855   1.93000
   A15        1.90883   0.00058   0.00000  -0.00180  -0.00191   1.90691
    D1        1.01968   0.00118   0.00000   0.01122   0.01121   1.03090
    D2       -0.90730   0.00037   0.00000  -0.00096  -0.00100  -0.90829
    D3        3.10761   0.00007   0.00000  -0.00388  -0.00380   3.10381
    D4        1.18063  -0.00074   0.00000  -0.01606  -0.01601   1.16462
    D5       -1.09372  -0.00010   0.00000  -0.00636  -0.00639  -1.10011
    D6       -3.02070  -0.00091   0.00000  -0.01854  -0.01860  -3.03930
    D7        1.09372   0.00010   0.00000   0.00636   0.00639   1.10012
    D8       -3.10761  -0.00007   0.00000   0.00389   0.00381  -3.10381
    D9       -1.01969  -0.00118   0.00000  -0.01122  -0.01121  -1.03089
   D10        3.02070   0.00091   0.00000   0.01854   0.01860   3.03930
   D11       -1.18063   0.00074   0.00000   0.01607   0.01601  -1.16462
   D12        0.90729  -0.00037   0.00000   0.00096   0.00100   0.90829
         Item               Value     Threshold  Converged?
 Maximum Force            0.012088     0.000450     NO 
 RMS     Force            0.003174     0.000300     NO 
 Maximum Displacement     0.064625     0.001800     NO 
 RMS     Displacement     0.022827     0.001200     NO 
 Predicted change in Energy=-5.858900D-04
 Lowest energy point so far.  Saving SCF results.
 GradGradGradGradGradGradGradGradGradGradGradGradGradGradGradGradGradGrad

 Leave Link  103 at Fri Mar 20 17:39:14 2026, MaxMem=   536870912 cpu:         0.0
 (Enter C:\G09W\l202.exe)
                          Input orientation:                          
 ---------------------------------------------------------------------
 Center     Atomic      Atomic             Coordinates (Angstroms)
 Number     Number       Type             X           Y           Z
 ---------------------------------------------------------------------
      1          6           0       -1.169940   -0.387022   -0.615632
      2         16           0        0.007140    0.989834   -0.365108
      3          6           0        1.299024   -0.008715    0.458268
      4          8           0       -0.582542    1.924672    0.661286
      5          1           0       -1.437099   -0.828654    0.349998
      6          1           0       -2.066308    0.028866   -1.082080
      7          1           0       -0.732886   -1.142899   -1.277008
      8          1           0        1.680726   -0.773072   -0.227185
      9          1           0        2.110509    0.668860    0.734668
     10          1           0        0.891377   -0.471873    1.362791
 ---------------------------------------------------------------------
                    Distance matrix (angstroms):
                    1          2          3          4          5
     1  C    0.000000
     2  S    1.828664   0.000000
     3  C    2.718853   1.828665   0.000000
     4  O    2.705455   1.508353   2.705456   0.000000
     5  H    1.094921   2.429836   2.858390   2.899651   0.000000
     6  H    1.092709   2.395140   3.701290   2.972367   1.783841
     7  H    1.095346   2.434697   2.902795   3.631746   1.800504
     8  H    2.902795   2.434698   1.095346   3.631747   3.171287
     9  H    3.701289   2.395140   1.092709   2.972368   3.869889
    10  H    2.858389   2.429835   1.094921   2.899651   2.564146
                    6          7          8          9         10
     6  H    0.000000
     7  H    1.785789   0.000000
     8  H    3.926094   2.657899   0.000000
     9  H    4.599561   3.926093   1.785789   0.000000
    10  H    3.869888   3.171285   1.800504   1.783842   0.000000
 Stoichiometry    C2H6OS
 Framework group  C1[X(C2H6OS)]
 Deg. of freedom    24
 Full point group                 C1      NOp   1
 RotChk:  IX=0 Diff= 2.22D-03
 Largest Abelian subgroup         C1      NOp   1
 Largest concise Abelian subgroup C1      NOp   1
                         Standard orientation:                         
 ---------------------------------------------------------------------
 Center     Atomic      Atomic             Coordinates (Angstroms)
 Number     Number       Type             X           Y           Z
 ---------------------------------------------------------------------
      1          6           0       -1.359424   -0.819438    0.177392
      2         16           0       -0.000001    0.240415   -0.433095
      3          6           0        1.359429   -0.819430    0.177392
      4          8           0       -0.000005    1.510894    0.379933
      5          1           0       -1.282071   -0.935274    1.263417
      6          1           0       -2.299780   -0.318730   -0.065579
      7          1           0       -1.328944   -1.796304   -0.317166
      8          1           0        1.328955   -1.796296   -0.317167
      9          1           0        2.299782   -0.318716   -0.065578
     10          1           0        1.282075   -0.935267    1.263417
 ---------------------------------------------------------------------
 Rotational constants (GHZ):      6.8015167      6.7444865      4.0624752
 Leave Link  202 at Fri Mar 20 17:39:14 2026, MaxMem=   536870912 cpu:         0.0
 (Enter C:\G09W\l301.exe)
 Standard basis: 6-31G(d) (6D, 7F)
 Ernie: Thresh=  0.10000D-02 Tol=  0.10000D-05 Strict=F.
 There are    76 symmetry adapted cartesian basis functions of A   symmetry.
 There are    76 symmetry adapted basis functions of A   symmetry.
    76 basis functions,   160 primitive gaussians,    76 cartesian basis functions
    21 alpha electrons       21 beta electrons
       nuclear repulsion energy       182.0494286169 Hartrees.
 IExCor=  402 DFT=T Ex+Corr=B3LYP ExCW=0 ScaHFX=  0.200000
 ScaDFX=  0.800000  0.720000  1.000000  0.810000 ScalE2=  1.000000  1.000000
 IRadAn=      0 IRanWt=     -1 IRanGd=            0 ICorTp=0 IEmpDi=  4
 NAtoms=   10 NActive=   10 NUniq=   10 SFac= 1.00D+00 NAtFMM=   60 NAOKFM=F Big=F
 Integral buffers will be    131072 words long.
 Raffenetti 2 integral format.
 Two-electron integral symmetry is turned on.
 Leave Link  301 at Fri Mar 20 17:39:14 2026, MaxMem=   536870912 cpu:         0.0
 (Enter C:\G09W\l302.exe)
 NPDir=0 NMtPBC=     1 NCelOv=     1 NCel=       1 NClECP=     1 NCelD=      1
         NCelK=      1 NCelE2=     1 NClLst=     1 CellRange=     0.0.
 One-electron integrals computed using PRISM.
 NBasis=    76 RedAO= T EigKep=  4.96D-03  NBF=    76
 NBsUse=    76 1.00D-06 EigRej= -1.00D+00 NBFU=    76
 Precomputing XC quadrature grid using
 IXCGrd= 4 IRadAn=           0 IRanWt=          -1 IRanGd=           0 AccXCQ= 0.00D+00.
 Generated NRdTot=       0 NPtTot=           0 NUsed=           0 NTot=          32
 NSgBfM=    76    76    76    76    76 MxSgAt=    10 MxSgA2=    10.
 Leave Link  302 at Fri Mar 20 17:39:15 2026, MaxMem=   536870912 cpu:         1.0
 (Enter C:\G09W\l303.exe)
 DipDrv:  MaxL=1.
 Leave Link  303 at Fri Mar 20 17:39:15 2026, MaxMem=   536870912 cpu:         0.0
 (Enter C:\G09W\l401.exe)
 Initial guess from the checkpoint file:  "dimethylsulfoxide_rdkit.chk"
 B after Tr=     0.000000    0.000000    0.000000
         Rot=    1.000000   -0.000175    0.000000   -0.000002 Ang=  -0.02 deg.
 Guess basis will be translated and rotated to current coordinates.
 JPrj=2 DoOrth=T DoCkMO=T.
 Generating alternative initial guess.
 ExpMin= 1.17D-01 ExpMax= 2.19D+04 ExpMxC= 3.30D+03 IAcc=1 IRadAn=         1 AccDes= 0.00D+00
 Harris functional with IExCor=  402 and IRadAn=       1 diagonalized for initial guess.
 HarFok:  IExCor=  402 AccDes= 0.00D+00 IRadAn=         1 IDoV= 1 UseB2=F ITyADJ=14
 ICtDFT=  3500011 ScaDFX=  1.000000  1.000000  1.000000  1.000000
 FoFCou: FMM=F IPFlag=           0 FMFlag=      100000 FMFlg1=           0
         NFxFlg=           0 DoJE=T BraDBF=F KetDBF=T FulRan=T
         wScrn=  0.000000 ICntrl=     500 IOpCl=  0 I1Cent=   200000004 NGrid=           0
         NMat0=    1 NMatS0=      1 NMatT0=    0 NMatD0=    1 NMtDS0=    0 NMtDT0=    0
 Petite list used in FoFCou.
 Harris En= -553.236830640075    
 Leave Link  401 at Fri Mar 20 17:39:16 2026, MaxMem=   536870912 cpu:         1.0
 (Enter C:\G09W\l502.exe)
 Closed shell SCF:
 Using DIIS extrapolation, IDIIS=  1040.
 Integral symmetry usage will be decided dynamically.
 Keep R1 ints in memory in canonical form, NReq=5217272.
 IVT=       36915 IEndB=       36915 NGot=   536870912 MDV=   532551797
 LenX=   532551797 LenY=   532545580
 Requested convergence on RMS density matrix=1.00D-08 within 128 cycles.
 Requested convergence on MAX density matrix=1.00D-06.
 Requested convergence on             energy=1.00D-06.
 No special actions if energy rises.
 FoFCou: FMM=F IPFlag=           0 FMFlag=           0 FMFlg1=           0
         NFxFlg=           0 DoJE=F BraDBF=F KetDBF=F FulRan=T
         wScrn=  0.000000 ICntrl=     600 IOpCl=  0 I1Cent=           0 NGrid=           0
         NMat0=    1 NMatS0=   2926 NMatT0=    0 NMatD0=    1 NMtDS0=    0 NMtDT0=    0
 Symmetry not used in FoFCou.
 Integral accuracy reduced to 1.0D-05 until final iterations.

 Cycle   1  Pass 0  IDiag  1:
 E= -553.186454607329    
 DIIS: error= 1.05D-03 at cycle   1 NSaved=   1.
 NSaved= 1 IEnMin= 1 EnMin= -553.186454607329     IErMin= 1 ErrMin= 1.05D-03
 ErrMax= 1.05D-03  0.00D+00 EMaxC= 1.00D-01 BMatC= 1.87D-04 BMatP= 1.87D-04
 IDIUse=3 WtCom= 9.90D-01 WtEn= 1.05D-02
 Coeff-Com:  0.100D+01
 Coeff-En:   0.100D+01
 Coeff:      0.100D+01
 Gap=     1.425 Goal=   None    Shift=    0.000
 GapD=    1.425 DampG=2.000 DampE=1.000 DampFc=2.0000 IDamp=-1.
 RMSDP=4.89D-04 MaxDP=9.43D-03              OVMax= 6.32D-03

 Cycle   2  Pass 0  IDiag  1:
 E= -553.186757329284     Delta-E=       -0.000302721954 Rises=F Damp=F
 DIIS: error= 5.41D-04 at cycle   2 NSaved=   2.
 NSaved= 2 IEnMin= 2 EnMin= -553.186757329284     IErMin= 2 ErrMin= 5.41D-04
 ErrMax= 5.41D-04  0.00D+00 EMaxC= 1.00D-01 BMatC= 3.03D-05 BMatP= 1.87D-04
 IDIUse=3 WtCom= 9.95D-01 WtEn= 5.41D-03
 Coeff-Com:  0.184D+00 0.816D+00
 Coeff-En:   0.000D+00 0.100D+01
 Coeff:      0.183D+00 0.817D+00
 Gap=     0.267 Goal=   None    Shift=    0.000
 RMSDP=1.90D-04 MaxDP=1.84D-03 DE=-3.03D-04 OVMax= 3.48D-03

 Cycle   3  Pass 0  IDiag  1:
 E= -553.186747151466     Delta-E=        0.000010177818 Rises=F Damp=F
 DIIS: error= 7.90D-04 at cycle   3 NSaved=   3.
 NSaved= 3 IEnMin= 2 EnMin= -553.186757329284     IErMin= 2 ErrMin= 5.41D-04
 ErrMax= 7.90D-04  0.00D+00 EMaxC= 1.00D-01 BMatC= 4.60D-05 BMatP= 3.03D-05
 IDIUse=3 WtCom= 2.62D-01 WtEn= 7.38D-01
 Coeff-Com: -0.383D-02 0.556D+00 0.448D+00
 Coeff-En:   0.000D+00 0.558D+00 0.442D+00
 Coeff:     -0.101D-02 0.558D+00 0.443D+00
 Gap=     0.268 Goal=   None    Shift=    0.000
 RMSDP=1.42D-04 MaxDP=1.88D-03 DE= 1.02D-05 OVMax= 2.53D-03

 Cycle   4  Pass 0  IDiag  1:
 E= -553.186787270671     Delta-E=       -0.000040119205 Rises=F Damp=F
 DIIS: error= 2.19D-04 at cycle   4 NSaved=   4.
 NSaved= 4 IEnMin= 4 EnMin= -553.186787270671     IErMin= 4 ErrMin= 2.19D-04
 ErrMax= 2.19D-04  0.00D+00 EMaxC= 1.00D-01 BMatC= 4.07D-06 BMatP= 3.03D-05
 IDIUse=3 WtCom= 9.98D-01 WtEn= 2.19D-03
 Coeff-Com: -0.203D-01 0.285D+00 0.283D+00 0.452D+00
 Coeff-En:   0.000D+00 0.000D+00 0.000D+00 0.100D+01
 Coeff:     -0.202D-01 0.285D+00 0.282D+00 0.453D+00
 Gap=     0.268 Goal=   None    Shift=    0.000
 RMSDP=3.19D-05 MaxDP=4.47D-04 DE=-4.01D-05 OVMax= 5.11D-04

 Cycle   5  Pass 0  IDiag  1:
 E= -553.186790313085     Delta-E=       -0.000003042414 Rises=F Damp=F
 DIIS: error= 3.14D-05 at cycle   5 NSaved=   5.
 NSaved= 5 IEnMin= 5 EnMin= -553.186790313085     IErMin= 5 ErrMin= 3.14D-05
 ErrMax= 3.14D-05  0.00D+00 EMaxC= 1.00D-01 BMatC= 9.00D-08 BMatP= 4.07D-06
 IDIUse=1 WtCom= 1.00D+00 WtEn= 0.00D+00
 Coeff-Com: -0.848D-02 0.750D-01 0.854D-01 0.192D+00 0.656D+00
 Coeff:     -0.848D-02 0.750D-01 0.854D-01 0.192D+00 0.656D+00
 Gap=     0.268 Goal=   None    Shift=    0.000
 RMSDP=5.32D-06 MaxDP=1.01D-04 DE=-3.04D-06 OVMax= 8.33D-05

 Initial convergence to 1.0D-05 achieved.  Increase integral accuracy.
 Cycle   6  Pass 1  IDiag  1:
 E= -553.186840147207     Delta-E=       -0.000049834122 Rises=F Damp=F
 DIIS: error= 1.54D-05 at cycle   1 NSaved=   1.
 NSaved= 1 IEnMin= 1 EnMin= -553.186840147207     IErMin= 1 ErrMin= 1.54D-05
 ErrMax= 1.54D-05  0.00D+00 EMaxC= 1.00D-01 BMatC= 2.35D-08 BMatP= 2.35D-08
 IDIUse=1 WtCom= 1.00D+00 WtEn= 0.00D+00
 Coeff-Com:  0.100D+01
 Coeff:      0.100D+01
 Gap=     0.268 Goal=   None    Shift=    0.000
 RMSDP=5.32D-06 MaxDP=1.01D-04 DE=-4.98D-05 OVMax= 5.75D-05

 Cycle   7  Pass 1  IDiag  1:
 E= -553.186840167522     Delta-E=       -0.000000020315 Rises=F Damp=F
 DIIS: error= 9.99D-06 at cycle   2 NSaved=   2.
 NSaved= 2 IEnMin= 2 EnMin= -553.186840167522     IErMin= 2 ErrMin= 9.99D-06
 ErrMax= 9.99D-06  0.00D+00 EMaxC= 1.00D-01 BMatC= 8.57D-09 BMatP= 2.35D-08
 IDIUse=1 WtCom= 1.00D+00 WtEn= 0.00D+00
 Coeff-Com:  0.335D+00 0.665D+00
 Coeff:      0.335D+00 0.665D+00
 Gap=     0.268 Goal=   None    Shift=    0.000
 RMSDP=2.37D-06 MaxDP=7.38D-05 DE=-2.03D-08 OVMax= 3.36D-05

 Cycle   8  Pass 1  IDiag  1:
 E= -553.186840172866     Delta-E=       -0.000000005344 Rises=F Damp=F
 DIIS: error= 7.69D-06 at cycle   3 NSaved=   3.
 NSaved= 3 IEnMin= 3 EnMin= -553.186840172866     IErMin= 3 ErrMin= 7.69D-06
 ErrMax= 7.69D-06  0.00D+00 EMaxC= 1.00D-01 BMatC= 3.89D-09 BMatP= 8.57D-09
 IDIUse=1 WtCom= 1.00D+00 WtEn= 0.00D+00
 Coeff-Com:  0.424D-01 0.397D+00 0.560D+00
 Coeff:      0.424D-01 0.397D+00 0.560D+00
 Gap=     0.268 Goal=   None    Shift=    0.000
 RMSDP=1.32D-06 MaxDP=1.71D-05 DE=-5.34D-09 OVMax= 1.97D-05

 Cycle   9  Pass 1  IDiag  1:
 E= -553.186840175442     Delta-E=       -0.000000002575 Rises=F Damp=F
 DIIS: error= 3.31D-06 at cycle   4 NSaved=   4.
 NSaved= 4 IEnMin= 4 EnMin= -553.186840175442     IErMin= 4 ErrMin= 3.31D-06
 ErrMax= 3.31D-06  0.00D+00 EMaxC= 1.00D-01 BMatC= 8.88D-10 BMatP= 3.89D-09
 IDIUse=1 WtCom= 1.00D+00 WtEn= 0.00D+00
 Coeff-Com: -0.147D-01 0.191D+00 0.381D+00 0.442D+00
 Coeff:     -0.147D-01 0.191D+00 0.381D+00 0.442D+00
 Gap=     0.268 Goal=   None    Shift=    0.000
 RMSDP=6.24D-07 MaxDP=9.22D-06 DE=-2.58D-09 OVMax= 1.11D-05

 Cycle  10  Pass 1  IDiag  1:
 E= -553.186840176152     Delta-E=       -0.000000000711 Rises=F Damp=F
 DIIS: error= 4.18D-07 at cycle   5 NSaved=   5.
 NSaved= 5 IEnMin= 5 EnMin= -553.186840176152     IErMin= 5 ErrMin= 4.18D-07
 ErrMax= 4.18D-07  0.00D+00 EMaxC= 1.00D-01 BMatC= 1.98D-11 BMatP= 8.88D-10
 IDIUse=1 WtCom= 1.00D+00 WtEn= 0.00D+00
 Coeff-Com: -0.852D-02 0.801D-01 0.166D+00 0.240D+00 0.522D+00
 Coeff:     -0.852D-02 0.801D-01 0.166D+00 0.240D+00 0.522D+00
 Gap=     0.268 Goal=   None    Shift=    0.000
 RMSDP=8.07D-08 MaxDP=1.11D-06 DE=-7.11D-10 OVMax= 1.22D-06

 Cycle  11  Pass 1  IDiag  1:
 E= -553.186840176170     Delta-E=       -0.000000000018 Rises=F Damp=F
 DIIS: error= 5.77D-08 at cycle   6 NSaved=   6.
 NSaved= 6 IEnMin= 6 EnMin= -553.186840176170     IErMin= 6 ErrMin= 5.77D-08
 ErrMax= 5.77D-08  0.00D+00 EMaxC= 1.00D-01 BMatC= 4.85D-13 BMatP= 1.98D-11
 IDIUse=1 WtCom= 1.00D+00 WtEn= 0.00D+00
 Coeff-Com: -0.125D-02 0.698D-02 0.170D-01 0.422D-01 0.169D+00 0.766D+00
 Coeff:     -0.125D-02 0.698D-02 0.170D-01 0.422D-01 0.169D+00 0.766D+00
 Gap=     0.268 Goal=   None    Shift=    0.000
 RMSDP=1.87D-08 MaxDP=3.98D-07 DE=-1.75D-11 OVMax= 2.13D-07

 Cycle  12  Pass 1  IDiag  1:
 E= -553.186840176170     Delta-E=        0.000000000000 Rises=F Damp=F
 DIIS: error= 1.79D-08 at cycle   7 NSaved=   7.
 NSaved= 7 IEnMin= 6 EnMin= -553.186840176170     IErMin= 7 ErrMin= 1.79D-08
 ErrMax= 1.79D-08  0.00D+00 EMaxC= 1.00D-01 BMatC= 1.56D-14 BMatP= 4.85D-13
 IDIUse=1 WtCom= 1.00D+00 WtEn= 0.00D+00
 Coeff-Com:  0.280D-04-0.193D-02-0.319D-02-0.438D-03 0.226D-01 0.212D+00
 Coeff-Com:  0.771D+00
 Coeff:      0.280D-04-0.193D-02-0.319D-02-0.438D-03 0.226D-01 0.212D+00
 Coeff:      0.771D+00
 Gap=     0.268 Goal=   None    Shift=    0.000
 RMSDP=2.90D-09 MaxDP=2.48D-08 DE= 2.27D-13 OVMax= 4.82D-08

 SCF Done:  E(RB3LYP) =  -553.186840176     A.U. after   12 cycles
            NFock= 12  Conv=0.29D-08     -V/T= 2.0050
 KE= 5.504161306673D+02 PE=-1.671427180978D+03 EE= 3.857747815176D+02
 Leave Link  502 at Fri Mar 20 17:39:20 2026, MaxMem=   536870912 cpu:         4.0
 (Enter C:\G09W\l701.exe)
 Compute integral first derivatives.
 ... and contract with generalized density number  0.
 Leave Link  701 at Fri Mar 20 17:39:20 2026, MaxMem=   536870912 cpu:         0.0
 (Enter C:\G09W\l702.exe)
 L702 exits ... SP integral derivatives will be done elsewhere.
 Leave Link  702 at Fri Mar 20 17:39:20 2026, MaxMem=   536870912 cpu:         0.0
 (Enter C:\G09W\l703.exe)
 Compute integral first derivatives, UseDBF=F ICtDFT=           0.
 Integral derivatives from FoFJK, PRISM(SPDF).
 Calling FoFJK, ICntrl=      2127 FMM=F ISym2X=0 I1Cent= 0 IOpClX= 0 NMat=1 NMatS=1 NMatT=0.
 FoFJK:  IHMeth= 1 ICntrl=    2127 DoSepK=F KAlg= 0 I1Cent=   0 FoldK=F
 IRaf=         0 NMat=   1 IRICut=       1 DoRegI=T DoRafI=F ISym2E= 0.
 FoFCou: FMM=F IPFlag=           0 FMFlag=      100000 FMFlg1=         800
         NFxFlg=           0 DoJE=F BraDBF=F KetDBF=F FulRan=T
         wScrn=  0.000000 ICntrl=    2127 IOpCl=  0 I1Cent=           0 NGrid=           0
         NMat0=    1 NMatS0=      1 NMatT0=    0 NMatD0=    1 NMtDS0=    0 NMtDT0=    0
 Symmetry not used in FoFCou.
 Leave Link  703 at Fri Mar 20 17:39:21 2026, MaxMem=   536870912 cpu:         1.0
 (Enter C:\G09W\l716.exe)
 Dipole        = 4.63702538D-06-1.53823393D+00-2.01924084D-01
 ***** Axes restored to original set *****
 -------------------------------------------------------------------
 Center     Atomic                   Forces (Hartrees/Bohr)
 Number     Number              X              Y              Z
 -------------------------------------------------------------------
      1        6          -0.002347968   -0.003561453    0.000395221
      2       16           0.001798714    0.002597885   -0.005050332
      3        6           0.002140743   -0.002873373    0.002347622
      4        8          -0.001238618    0.000804492    0.002564349
      5        1           0.000165336    0.000288009   -0.000068488
      6        1           0.000187287    0.000714552    0.000064725
      7        1           0.000375211    0.000652305    0.000268614
      8        1          -0.000601169    0.000502664   -0.000156024
      9        1          -0.000348605    0.000632415   -0.000168357
     10        1          -0.000130931    0.000242503   -0.000197331
 -------------------------------------------------------------------
 Cartesian Forces:  Max     0.005050332 RMS     0.001668906
 Leave Link  716 at Fri Mar 20 17:39:21 2026, MaxMem=   536870912 cpu:         0.0
 (Enter C:\G09W\l103.exe)

 GradGradGradGradGradGradGradGradGradGradGradGradGradGradGradGradGradGrad
 Berny optimization.
 Using GEDIIS/GDIIS optimizer.
 FormGI is forming the generalized inverse of G from B-inverse, IUseBI=4.
 Internal  Forces:  Max     0.002729539 RMS     0.000890955
 Search for a local minimum.
 Step number   2 out of a maximum of   46
 All quantities printed in internal units (Hartrees-Bohrs-Radians)
 RMS Force = .89096D-03 SwitMx=.10000D-02 MixMth= 2
 Mixed Optimization -- En-DIIS/RFO-DIIS
 Update second derivatives using D2CorX and points    1    2
 DE= -6.71D-04 DEPred=-5.86D-04 R= 1.15D+00
 TightC=F SS=  1.41D+00  RLast= 7.77D-02 DXNew= 5.0454D-01 2.3308D-01
 Trust test= 1.15D+00 RLast= 7.77D-02 DXMaxT set to 3.00D-01
 ITU=  1  0
 Use linear search instead of GDIIS.
     Eigenvalues ---    0.00250   0.00250   0.06427   0.07111   0.07378
     Eigenvalues ---    0.07492   0.07795   0.12283   0.14225   0.16000
     Eigenvalues ---    0.16000   0.16000   0.16000   0.16635   0.21511
     Eigenvalues ---    0.25044   0.25411   0.34512   0.34513   0.34519
     Eigenvalues ---    0.34520   0.34529   0.35378   0.73557
 RFO step:  Lambda=-1.76950126D-04 EMin= 2.49649618D-03
 Quartic linear search produced a step of  0.20780.
 Iteration  1 RMS(Cart)=  0.00852285 RMS(Int)=  0.00008785
 Iteration  2 RMS(Cart)=  0.00011466 RMS(Int)=  0.00004090
 Iteration  3 RMS(Cart)=  0.00000001 RMS(Int)=  0.00004090
 ITry= 1 IFail=0 DXMaxC= 2.50D-02 DCOld= 1.00D+10 DXMaxT= 3.00D-01 DXLimC= 3.00D+00 Rises=F
 Variable       Old X    -DE/DX   Delta X   Delta X   Delta X     New X
                                 (Linear)    (Quad)   (Total)
    R1        3.45567   0.00239   0.00767   0.00954   0.01722   3.47289
    R2        2.06910  -0.00022   0.00091  -0.00098  -0.00007   2.06903
    R3        2.06492   0.00009   0.00006   0.00030   0.00037   2.06529
    R4        2.06990  -0.00046   0.00113  -0.00189  -0.00076   2.06915
    R5        3.45568   0.00239   0.00767   0.00954   0.01722   3.47289
    R6        2.85038   0.00273   0.00327   0.00347   0.00674   2.85712
    R7        2.06990  -0.00046   0.00113  -0.00189  -0.00076   2.06915
    R8        2.06492   0.00009   0.00006   0.00030   0.00037   2.06529
    R9        2.06910  -0.00022   0.00091  -0.00098  -0.00007   2.06903
    A1        1.91764  -0.00005  -0.00036  -0.00013  -0.00052   1.91712
    A2        1.87542  -0.00092  -0.00407  -0.00641  -0.01051   1.86491
    A3        1.92353  -0.00074   0.00260  -0.00599  -0.00340   1.92013
    A4        1.90691   0.00045  -0.00040   0.00320   0.00276   1.90968
    A5        1.92999   0.00050   0.00178   0.00408   0.00584   1.93584
    A6        1.90944   0.00074   0.00033   0.00506   0.00537   1.91482
    A7        1.67627  -0.00067   0.00103  -0.00902  -0.00806   1.66821
    A8        1.88412  -0.00059   0.00164  -0.01261  -0.01110   1.87302
    A9        1.88412  -0.00059   0.00164  -0.01261  -0.01110   1.87302
   A10        1.92353  -0.00074   0.00260  -0.00599  -0.00340   1.92013
   A11        1.87542  -0.00092  -0.00407  -0.00641  -0.01051   1.86491
   A12        1.91763  -0.00005  -0.00036  -0.00013  -0.00052   1.91712
   A13        1.90945   0.00074   0.00033   0.00506   0.00537   1.91482
   A14        1.93000   0.00050   0.00178   0.00408   0.00584   1.93584
   A15        1.90691   0.00045  -0.00040   0.00320   0.00276   1.90968
    D1        1.03090  -0.00048   0.00233  -0.01418  -0.01182   1.01907
    D2       -0.90829   0.00056  -0.00021   0.00593   0.00568  -0.90261
    D3        3.10381  -0.00051  -0.00079  -0.01416  -0.01490   3.08890
    D4        1.16462   0.00053  -0.00333   0.00595   0.00260   1.16722
    D5       -1.10011  -0.00058  -0.00133  -0.01526  -0.01655  -1.11667
    D6       -3.03930   0.00046  -0.00387   0.00485   0.00095  -3.03835
    D7        1.10012   0.00058   0.00133   0.01526   0.01655   1.11667
    D8       -3.10381   0.00051   0.00079   0.01416   0.01490  -3.08890
    D9       -1.03089   0.00048  -0.00233   0.01418   0.01182  -1.01907
   D10        3.03930  -0.00046   0.00387  -0.00485  -0.00095   3.03835
   D11       -1.16462  -0.00053   0.00333  -0.00595  -0.00260  -1.16722
   D12        0.90829  -0.00056   0.00021  -0.00593  -0.00568   0.90261
         Item               Value     Threshold  Converged?
 Maximum Force            0.002730     0.000450     NO 
 RMS     Force            0.000891     0.000300     NO 
 Maximum Displacement     0.024956     0.001800     NO 
 RMS     Displacement     0.008555     0.001200     NO 
 Predicted change in Energy=-1.060561D-04
 Lowest energy point so far.  Saving SCF results.
 GradGradGradGradGradGradGradGradGradGradGradGradGradGradGradGradGradGrad

 Leave Link  103 at Fri Mar 20 17:39:22 2026, MaxMem=   536870912 cpu:         0.0
 (Enter C:\G09W\l202.exe)
                          Input orientation:                          
 ---------------------------------------------------------------------
 Center     Atomic      Atomic             Coordinates (Angstroms)
 Number     Number       Type             X           Y           Z
 ---------------------------------------------------------------------
      1          6           0       -1.171389   -0.390801   -0.615543
      2         16           0        0.012088    0.995028   -0.378314
      3          6           0        1.300855   -0.011991    0.459784
      4          8           0       -0.581149    1.920775    0.659458
      5          1           0       -1.429715   -0.829008    0.354000
      6          1           0       -2.068608    0.033579   -1.073075
      7          1           0       -0.737970   -1.143863   -1.281838
      8          1           0        1.687735   -0.772183   -0.226755
      9          1           0        2.104351    0.672982    0.741996
     10          1           0        0.883802   -0.474520    1.360286
 ---------------------------------------------------------------------
                    Distance matrix (angstroms):
                    1          2          3          4          5
     1  C    0.000000
     2  S    1.837775   0.000000
     3  C    2.722465   1.837775   0.000000
     4  O    2.705068   1.511923   2.705069   0.000000
     5  H    1.094883   2.437660   2.852143   2.893903   0.000000
     6  H    1.092902   2.395072   3.702028   2.962383   1.785715
     7  H    1.094945   2.440040   2.910531   3.631147   1.803777
     8  H    2.910532   2.440040   1.094944   3.631147   3.171593
     9  H    3.702028   2.395073   1.092903   2.962383   3.859551
    10  H    2.852142   2.437660   1.094883   2.893904   2.547673
                    6          7          8          9         10
     6  H    0.000000
     7  H    1.789007   0.000000
     8  H    3.933906   2.671215   0.000000
     9  H    4.595313   3.933906   1.789008   0.000000
    10  H    3.859551   3.171590   1.803777   1.785716   0.000000
 Stoichiometry    C2H6OS
 Framework group  C1[X(C2H6OS)]
 Deg. of freedom    24
 Full point group                 C1      NOp   1
 RotChk:  IX=0 Diff= 5.74D-03
 Largest Abelian subgroup         C1      NOp   1
 Largest concise Abelian subgroup C1      NOp   1
                         Standard orientation:                         
 ---------------------------------------------------------------------
 Center     Atomic      Atomic             Coordinates (Angstroms)
 Number     Number       Type             X           Y           Z
 ---------------------------------------------------------------------
      1          6           0       -1.361232   -0.822014    0.180908
      2         16           0        0.000000    0.244007   -0.442042
      3          6           0        1.361233   -0.822012    0.180908
      4          8           0       -0.000001    1.506206    0.390282
      5          1           0       -1.273836   -0.940295    1.265869
      6          1           0       -2.297656   -0.310021   -0.054482
      7          1           0       -1.335606   -1.794487   -0.321629
      8          1           0        1.335609   -1.794484   -0.321630
      9          1           0        2.297657   -0.310017   -0.054481
     10          1           0        1.273836   -0.940294    1.265869
 ---------------------------------------------------------------------
 Rotational constants (GHZ):      6.7548403      6.7130973      4.0618203
 Leave Link  202 at Fri Mar 20 17:39:22 2026, MaxMem=   536870912 cpu:         0.0
 (Enter C:\G09W\l301.exe)
 Standard basis: 6-31G(d) (6D, 7F)
 Ernie: Thresh=  0.10000D-02 Tol=  0.10000D-05 Strict=F.
 There are    76 symmetry adapted cartesian basis functions of A   symmetry.
 There are    76 symmetry adapted basis functions of A   symmetry.
    76 basis functions,   160 primitive gaussians,    76 cartesian basis functions
    21 alpha electrons       21 beta electrons
       nuclear repulsion energy       181.6376187266 Hartrees.
 IExCor=  402 DFT=T Ex+Corr=B3LYP ExCW=0 ScaHFX=  0.200000
 ScaDFX=  0.800000  0.720000  1.000000  0.810000 ScalE2=  1.000000  1.000000
 IRadAn=      0 IRanWt=     -1 IRanGd=            0 ICorTp=0 IEmpDi=  4
 NAtoms=   10 NActive=   10 NUniq=   10 SFac= 1.00D+00 NAtFMM=   60 NAOKFM=F Big=F
 Integral buffers will be    131072 words long.
 Raffenetti 2 integral format.
 Two-electron integral symmetry is turned on.
 Leave Link  301 at Fri Mar 20 17:39:22 2026, MaxMem=   536870912 cpu:         0.0
 (Enter C:\G09W\l302.exe)
 NPDir=0 NMtPBC=     1 NCelOv=     1 NCel=       1 NClECP=     1 NCelD=      1
         NCelK=      1 NCelE2=     1 NClLst=     1 CellRange=     0.0.
 One-electron integrals computed using PRISM.
 NBasis=    76 RedAO= T EigKep=  4.91D-03  NBF=    76
 NBsUse=    76 1.00D-06 EigRej= -1.00D+00 NBFU=    76
 Precomputing XC quadrature grid using
 IXCGrd= 4 IRadAn=           0 IRanWt=          -1 IRanGd=           0 AccXCQ= 0.00D+00.
 Generated NRdTot=       0 NPtTot=           0 NUsed=           0 NTot=          32
 NSgBfM=    76    76    76    76    76 MxSgAt=    10 MxSgA2=    10.
 Leave Link  302 at Fri Mar 20 17:39:22 2026, MaxMem=   536870912 cpu:         0.0
 (Enter C:\G09W\l303.exe)
 DipDrv:  MaxL=1.
 Leave Link  303 at Fri Mar 20 17:39:23 2026, MaxMem=   536870912 cpu:         0.0
 (Enter C:\G09W\l401.exe)
 Initial guess from the checkpoint file:  "dimethylsulfoxide_rdkit.chk"
 B after Tr=     0.000000    0.000000    0.000000
         Rot=    0.999999   -0.001375    0.000000    0.000001 Ang=  -0.16 deg.
 Guess basis will be translated and rotated to current coordinates.
 JPrj=2 DoOrth=T DoCkMO=T.
 Generating alternative initial guess.
 ExpMin= 1.17D-01 ExpMax= 2.19D+04 ExpMxC= 3.30D+03 IAcc=1 IRadAn=         1 AccDes= 0.00D+00
 Harris functional with IExCor=  402 and IRadAn=       1 diagonalized for initial guess.
 HarFok:  IExCor=  402 AccDes= 0.00D+00 IRadAn=         1 IDoV= 1 UseB2=F ITyADJ=14
 ICtDFT=  3500011 ScaDFX=  1.000000  1.000000  1.000000  1.000000
 FoFCou: FMM=F IPFlag=           0 FMFlag=      100000 FMFlg1=           0
         NFxFlg=           0 DoJE=T BraDBF=F KetDBF=T FulRan=T
         wScrn=  0.000000 ICntrl=     500 IOpCl=  0 I1Cent=   200000004 NGrid=           0
         NMat0=    1 NMatS0=      1 NMatT0=    0 NMatD0=    1 NMtDS0=    0 NMtDT0=    0
 Petite list used in FoFCou.
 Harris En= -553.237871022431    
 Leave Link  401 at Fri Mar 20 17:39:23 2026, MaxMem=   536870912 cpu:         0.0
 (Enter C:\G09W\l502.exe)
 Closed shell SCF:
 Using DIIS extrapolation, IDIIS=  1040.
 Integral symmetry usage will be decided dynamically.
 Keep R1 ints in memory in canonical form, NReq=5217272.
 IVT=       36915 IEndB=       36915 NGot=   536870912 MDV=   532551797
 LenX=   532551797 LenY=   532545580
 Requested convergence on RMS density matrix=1.00D-08 within 128 cycles.
 Requested convergence on MAX density matrix=1.00D-06.
 Requested convergence on             energy=1.00D-06.
 No special actions if energy rises.
 FoFCou: FMM=F IPFlag=           0 FMFlag=           0 FMFlg1=           0
         NFxFlg=           0 DoJE=F BraDBF=F KetDBF=F FulRan=T
         wScrn=  0.000000 ICntrl=     600 IOpCl=  0 I1Cent=           0 NGrid=           0
         NMat0=    1 NMatS0=   2926 NMatT0=    0 NMatD0=    1 NMtDS0=    0 NMtDT0=    0
 Symmetry not used in FoFCou.
 Integral accuracy reduced to 1.0D-05 until final iterations.

 Cycle   1  Pass 0  IDiag  1:
 E= -553.186691185500    
 DIIS: error= 9.43D-04 at cycle   1 NSaved=   1.
 NSaved= 1 IEnMin= 1 EnMin= -553.186691185500     IErMin= 1 ErrMin= 9.43D-04
 ErrMax= 9.43D-04  0.00D+00 EMaxC= 1.00D-01 BMatC= 8.91D-05 BMatP= 8.91D-05
 IDIUse=3 WtCom= 9.91D-01 WtEn= 9.43D-03
 Coeff-Com:  0.100D+01
 Coeff-En:   0.100D+01
 Coeff:      0.100D+01
 Gap=     1.431 Goal=   None    Shift=    0.000
 RMSDP=4.47D-04 MaxDP=1.03D-02              OVMax= 3.99D-03

 Cycle   2  Pass 0  IDiag  1:
 E= -553.186862669782     Delta-E=       -0.000171484282 Rises=F Damp=F
 DIIS: error= 2.65D-04 at cycle   2 NSaved=   2.
 NSaved= 2 IEnMin= 2 EnMin= -553.186862669782     IErMin= 2 ErrMin= 2.65D-04
 ErrMax= 2.65D-04  0.00D+00 EMaxC= 1.00D-01 BMatC= 7.41D-06 BMatP= 8.91D-05
 IDIUse=3 WtCom= 9.97D-01 WtEn= 2.65D-03
 Coeff-Com:  0.587D-01 0.941D+00
 Coeff-En:   0.000D+00 0.100D+01
 Coeff:      0.585D-01 0.941D+00
 Gap=     0.264 Goal=   None    Shift=    0.000
 RMSDP=9.01D-05 MaxDP=1.28D-03 DE=-1.71D-04 OVMax= 1.52D-03

 Cycle   3  Pass 0  IDiag  1:
 E= -553.186860350687     Delta-E=        0.000002319095 Rises=F Damp=F
 DIIS: error= 3.48D-04 at cycle   3 NSaved=   3.
 NSaved= 3 IEnMin= 2 EnMin= -553.186862669782     IErMin= 2 ErrMin= 2.65D-04
 ErrMax= 3.48D-04  0.00D+00 EMaxC= 1.00D-01 BMatC= 1.03D-05 BMatP= 7.41D-06
 IDIUse=3 WtCom= 3.49D-01 WtEn= 6.51D-01
 Coeff-Com: -0.376D-01 0.560D+00 0.478D+00
 Coeff-En:   0.000D+00 0.558D+00 0.442D+00
 Coeff:     -0.131D-01 0.559D+00 0.454D+00
 Gap=     0.264 Goal=   None    Shift=    0.000
 RMSDP=5.82D-05 MaxDP=7.99D-04 DE= 2.32D-06 OVMax= 1.01D-03

 Cycle   4  Pass 0  IDiag  1:
 E= -553.186870731091     Delta-E=       -0.000010380404 Rises=F Damp=F
 DIIS: error= 8.39D-05 at cycle   4 NSaved=   4.
 NSaved= 4 IEnMin= 4 EnMin= -553.186870731091     IErMin= 4 ErrMin= 8.39D-05
 ErrMax= 8.39D-05  0.00D+00 EMaxC= 1.00D-01 BMatC= 6.05D-07 BMatP= 7.41D-06
 IDIUse=1 WtCom= 1.00D+00 WtEn= 0.00D+00
 Coeff-Com: -0.267D-01 0.308D+00 0.284D+00 0.435D+00
 Coeff:     -0.267D-01 0.308D+00 0.284D+00 0.435D+00
 Gap=     0.264 Goal=   None    Shift=    0.000
 RMSDP=1.56D-05 MaxDP=2.04D-04 DE=-1.04D-05 OVMax= 2.75D-04

 Cycle   5  Pass 0  IDiag  1:
 E= -553.186871151718     Delta-E=       -0.000000420628 Rises=F Damp=F
 DIIS: error= 3.29D-05 at cycle   5 NSaved=   5.
 NSaved= 5 IEnMin= 5 EnMin= -553.186871151718     IErMin= 5 ErrMin= 3.29D-05
 ErrMax= 3.29D-05  0.00D+00 EMaxC= 1.00D-01 BMatC= 5.66D-08 BMatP= 6.05D-07
 IDIUse=1 WtCom= 1.00D+00 WtEn= 0.00D+00
 Coeff-Com: -0.680D-02 0.638D-01 0.667D-01 0.257D+00 0.619D+00
 Coeff:     -0.680D-02 0.638D-01 0.667D-01 0.257D+00 0.619D+00
 Gap=     0.264 Goal=   None    Shift=    0.000
 RMSDP=4.52D-06 MaxDP=5.52D-05 DE=-4.21D-07 OVMax= 7.29D-05

 Initial convergence to 1.0D-05 achieved.  Increase integral accuracy.
 Cycle   6  Pass 1  IDiag  1:
 E= -553.186917227169     Delta-E=       -0.000046075451 Rises=F Damp=F
 DIIS: error= 1.43D-05 at cycle   1 NSaved=   1.
 NSaved= 1 IEnMin= 1 EnMin= -553.186917227169     IErMin= 1 ErrMin= 1.43D-05
 ErrMax= 1.43D-05  0.00D+00 EMaxC= 1.00D-01 BMatC= 1.83D-08 BMatP= 1.83D-08
 IDIUse=1 WtCom= 1.00D+00 WtEn= 0.00D+00
 Coeff-Com:  0.100D+01
 Coeff:      0.100D+01
 Gap=     0.264 Goal=   None    Shift=    0.000
 RMSDP=4.52D-06 MaxDP=5.52D-05 DE=-4.61D-05 OVMax= 4.93D-05

 Cycle   7  Pass 1  IDiag  1:
 E= -553.186917249950     Delta-E=       -0.000000022781 Rises=F Damp=F
 DIIS: error= 2.99D-06 at cycle   2 NSaved=   2.
 NSaved= 2 IEnMin= 2 EnMin= -553.186917249950     IErMin= 2 ErrMin= 2.99D-06
 ErrMax= 2.99D-06  0.00D+00 EMaxC= 1.00D-01 BMatC= 1.86D-09 BMatP= 1.83D-08
 IDIUse=1 WtCom= 1.00D+00 WtEn= 0.00D+00
 Coeff-Com:  0.135D+00 0.865D+00
 Coeff:      0.135D+00 0.865D+00
 Gap=     0.264 Goal=   None    Shift=    0.000
 RMSDP=1.74D-06 MaxDP=4.71D-05 DE=-2.28D-08 OVMax= 1.89D-05

 Cycle   8  Pass 1  IDiag  1:
 E= -553.186917250689     Delta-E=       -0.000000000739 Rises=F Damp=F
 DIIS: error= 2.56D-06 at cycle   3 NSaved=   3.
 NSaved= 3 IEnMin= 3 EnMin= -553.186917250689     IErMin= 3 ErrMin= 2.56D-06
 ErrMax= 2.56D-06  0.00D+00 EMaxC= 1.00D-01 BMatC= 1.16D-09 BMatP= 1.86D-09
 IDIUse=1 WtCom= 1.00D+00 WtEn= 0.00D+00
 Coeff-Com: -0.202D-01 0.439D+00 0.581D+00
 Coeff:     -0.202D-01 0.439D+00 0.581D+00
 Gap=     0.264 Goal=   None    Shift=    0.000
 RMSDP=6.11D-07 MaxDP=1.91D-05 DE=-7.39D-10 OVMax= 9.83D-06

 Cycle   9  Pass 1  IDiag  1:
 E= -553.186917251898     Delta-E=       -0.000000001209 Rises=F Damp=F
 DIIS: error= 6.00D-07 at cycle   4 NSaved=   4.
 NSaved= 4 IEnMin= 4 EnMin= -553.186917251898     IErMin= 4 ErrMin= 6.00D-07
 ErrMax= 6.00D-07  0.00D+00 EMaxC= 1.00D-01 BMatC= 3.97D-11 BMatP= 1.16D-09
 IDIUse=1 WtCom= 1.00D+00 WtEn= 0.00D+00
 Coeff-Com: -0.136D-01 0.197D+00 0.296D+00 0.521D+00
 Coeff:     -0.136D-01 0.197D+00 0.296D+00 0.521D+00
 Gap=     0.264 Goal=   None    Shift=    0.000
 RMSDP=1.01D-07 MaxDP=1.52D-06 DE=-1.21D-09 OVMax= 1.58D-06

 Cycle  10  Pass 1  IDiag  1:
 E= -553.186917251931     Delta-E=       -0.000000000032 Rises=F Damp=F
 DIIS: error= 1.98D-07 at cycle   5 NSaved=   5.
 NSaved= 5 IEnMin= 5 EnMin= -553.186917251931     IErMin= 5 ErrMin= 1.98D-07
 ErrMax= 1.98D-07  0.00D+00 EMaxC= 1.00D-01 BMatC= 3.94D-12 BMatP= 3.97D-11
 IDIUse=1 WtCom= 1.00D+00 WtEn= 0.00D+00
 Coeff-Com: -0.483D-02 0.569D-01 0.980D-01 0.282D+00 0.568D+00
 Coeff:     -0.483D-02 0.569D-01 0.980D-01 0.282D+00 0.568D+00
 Gap=     0.264 Goal=   None    Shift=    0.000
 RMSDP=6.18D-08 MaxDP=8.63D-07 DE=-3.24D-11 OVMax= 9.94D-07

 Cycle  11  Pass 1  IDiag  1:
 E= -553.186917251928     Delta-E=        0.000000000003 Rises=F Damp=F
 DIIS: error= 1.61D-07 at cycle   6 NSaved=   6.
 NSaved= 6 IEnMin= 5 EnMin= -553.186917251931     IErMin= 6 ErrMin= 1.61D-07
 ErrMax= 1.61D-07  0.00D+00 EMaxC= 1.00D-01 BMatC= 1.43D-12 BMatP= 3.94D-12
 IDIUse=1 WtCom= 1.00D+00 WtEn= 0.00D+00
 Coeff-Com: -0.981D-03 0.517D-02 0.164D-01 0.981D-01 0.408D+00 0.473D+00
 Coeff:     -0.981D-03 0.517D-02 0.164D-01 0.981D-01 0.408D+00 0.473D+00
 Gap=     0.264 Goal=   None    Shift=    0.000
 RMSDP=1.78D-08 MaxDP=2.19D-07 DE= 2.61D-12 OVMax= 4.14D-07

 Cycle  12  Pass 1  IDiag  1:
 E= -553.186917251936     Delta-E=       -0.000000000007 Rises=F Damp=F
 DIIS: error= 1.15D-08 at cycle   7 NSaved=   7.
 NSaved= 7 IEnMin= 7 EnMin= -553.186917251936     IErMin= 7 ErrMin= 1.15D-08
 ErrMax= 1.15D-08  0.00D+00 EMaxC= 1.00D-01 BMatC= 1.27D-14 BMatP= 1.43D-12
 IDIUse=1 WtCom= 1.00D+00 WtEn= 0.00D+00
 Coeff-Com:  0.133D-03-0.363D-02-0.445D-02 0.286D-02 0.785D-01 0.125D+00
 Coeff-Com:  0.802D+00
 Coeff:      0.133D-03-0.363D-02-0.445D-02 0.286D-02 0.785D-01 0.125D+00
 Coeff:      0.802D+00
 Gap=     0.264 Goal=   None    Shift=    0.000
 RMSDP=2.85D-09 MaxDP=2.62D-08 DE=-7.39D-12 OVMax= 6.45D-08

 SCF Done:  E(RB3LYP) =  -553.186917252     A.U. after   12 cycles
            NFock= 12  Conv=0.29D-08     -V/T= 2.0051
 KE= 5.503943605836D+02 PE=-1.670600126053D+03 EE= 3.853812294908D+02
 Leave Link  502 at Fri Mar 20 17:39:27 2026, MaxMem=   536870912 cpu:         4.0
 (Enter C:\G09W\l701.exe)
 Compute integral first derivatives.
 ... and contract with generalized density number  0.
 Leave Link  701 at Fri Mar 20 17:39:27 2026, MaxMem=   536870912 cpu:         0.0
 (Enter C:\G09W\l702.exe)
 L702 exits ... SP integral derivatives will be done elsewhere.
 Leave Link  702 at Fri Mar 20 17:39:27 2026, MaxMem=   536870912 cpu:         0.0
 (Enter C:\G09W\l703.exe)
 Compute integral first derivatives, UseDBF=F ICtDFT=           0.
 Integral derivatives from FoFJK, PRISM(SPDF).
 Calling FoFJK, ICntrl=      2127 FMM=F ISym2X=0 I1Cent= 0 IOpClX= 0 NMat=1 NMatS=1 NMatT=0.
 FoFJK:  IHMeth= 1 ICntrl=    2127 DoSepK=F KAlg= 0 I1Cent=   0 FoldK=F
 IRaf=         0 NMat=   1 IRICut=       1 DoRegI=T DoRafI=F ISym2E= 0.
 FoFCou: FMM=F IPFlag=           0 FMFlag=      100000 FMFlg1=         800
         NFxFlg=           0 DoJE=F BraDBF=F KetDBF=F FulRan=T
         wScrn=  0.000000 ICntrl=    2127 IOpCl=  0 I1Cent=           0 NGrid=           0
         NMat0=    1 NMatS0=      1 NMatT0=    0 NMatD0=    1 NMtDS0=    0 NMtDT0=    0
 Symmetry not used in FoFCou.
 Leave Link  703 at Fri Mar 20 17:39:29 2026, MaxMem=   536870912 cpu:         1.0
 (Enter C:\G09W\l716.exe)
 Dipole        = 1.11788115D-06-1.52639715D+00-2.23119153D-01
 ***** Axes restored to original set *****
 -------------------------------------------------------------------
 Center     Atomic                   Forces (Hartrees/Bohr)
 Number     Number              X              Y              Z
 -------------------------------------------------------------------
      1        6          -0.000606040   -0.000312296   -0.000860122
      2       16          -0.000793512   -0.001087320    0.002207372
      3        6           0.001089418   -0.000052418   -0.000122659
      4        8           0.000254535    0.000334517   -0.000703004
      5        1           0.000534264    0.000570749   -0.000255697
      6        1          -0.000006773   -0.000139009   -0.000013787
      7        1          -0.000057838    0.000194756    0.000200864
      8        1          -0.000155731    0.000179755    0.000158226
      9        1           0.000049369   -0.000130460    0.000010623
     10        1          -0.000307693    0.000441726   -0.000621816
 -------------------------------------------------------------------
 Cartesian Forces:  Max     0.002207372 RMS     0.000614273
 Leave Link  716 at Fri Mar 20 17:39:29 2026, MaxMem=   536870912 cpu:         0.0
 (Enter C:\G09W\l103.exe)

 GradGradGradGradGradGradGradGradGradGradGradGradGradGradGradGradGradGrad
 Berny optimization.
 Using GEDIIS/GDIIS optimizer.
 FormGI is forming the generalized inverse of G from B-inverse, IUseBI=4.
 Internal  Forces:  Max     0.001186509 RMS     0.000427263
 Search for a local minimum.
 Step number   3 out of a maximum of   46
 All quantities printed in internal units (Hartrees-Bohrs-Radians)
 RMS Force = .42726D-03 SwitMx=.10000D-02 MixMth= 2
 Mixed Optimization -- En-DIIS/RFO-DIIS
 Swapping is turned off.
 Update second derivatives using D2CorX and points    1    2    3
 DE= -7.71D-05 DEPred=-1.06D-04 R= 7.27D-01
 TightC=F SS=  1.41D+00  RLast= 5.19D-02 DXNew= 5.0454D-01 1.5556D-01
 Trust test= 7.27D-01 RLast= 5.19D-02 DXMaxT set to 3.00D-01
 ITU=  1  1  0
     Eigenvalues ---    0.00249   0.00250   0.07133   0.07220   0.07423
     Eigenvalues ---    0.07574   0.09236   0.11553   0.12102   0.16000
     Eigenvalues ---    0.16000   0.16000   0.16488   0.17671   0.20599
     Eigenvalues ---    0.25411   0.25857   0.34512   0.34518   0.34520
     Eigenvalues ---    0.34529   0.34643   0.35783   0.73501
 En-DIIS/RFO-DIIS IScMMF=        0 using points:     3    2
 RFO step:  Lambda=-1.55537091D-05.
 NNeg= 0 NP= 2 Switch=  2.50D-03 Rises=F DC=  7.71D-05 SmlDif=  1.00D-05
 RMS Error=  0.1045196675D-02 NUsed= 2 EDIIS=F
 DidBck=T Rises=F RFO-DIIS coefs:    0.78005    0.21995
 Iteration  1 RMS(Cart)=  0.00348599 RMS(Int)=  0.00000871
 Iteration  2 RMS(Cart)=  0.00001291 RMS(Int)=  0.00000336
 Iteration  3 RMS(Cart)=  0.00000000 RMS(Int)=  0.00000336
 ITry= 1 IFail=0 DXMaxC= 8.64D-03 DCOld= 1.00D+10 DXMaxT= 3.00D-01 DXLimC= 3.00D+00 Rises=F
 Variable       Old X    -DE/DX   Delta X   Delta X   Delta X     New X
                                 (Linear)    (Quad)   (Total)
    R1        3.47289  -0.00003  -0.00379   0.00472   0.00093   3.47382
    R2        2.06903  -0.00058   0.00002  -0.00149  -0.00147   2.06756
    R3        2.06529  -0.00004  -0.00008   0.00001  -0.00007   2.06522
    R4        2.06915  -0.00028   0.00017  -0.00103  -0.00087   2.06828
    R5        3.47289  -0.00003  -0.00379   0.00472   0.00093   3.47382
    R6        2.85712  -0.00038  -0.00148   0.00147  -0.00001   2.85711
    R7        2.06915  -0.00028   0.00017  -0.00103  -0.00087   2.06828
    R8        2.06529  -0.00004  -0.00008   0.00001  -0.00007   2.06522
    R9        2.06903  -0.00058   0.00002  -0.00149  -0.00147   2.06756
    A1        1.91712  -0.00094   0.00011  -0.00533  -0.00522   1.91190
    A2        1.86491   0.00038   0.00231  -0.00059   0.00173   1.86664
    A3        1.92013   0.00005   0.00075  -0.00124  -0.00050   1.91963
[...]
               16            17            18            19            20 
     16  0.250614D+00
     17 -0.557654D-01  0.540685D-01
     18 -0.557654D-01 -0.778868D-03  0.540685D-01
     19 -0.128662D-01 -0.644067D-03  0.207768D-01  0.946984D-01
     20  0.327720D-01 -0.341348D-02 -0.120263D-01 -0.139567D-01  0.102676D+00
     21 -0.720859D-02  0.181629D-02 -0.144541D-01 -0.158457D-01 -0.153202D-01
     22 -0.782920D-02  0.104520D-02 -0.652937D-03 -0.340809D-01 -0.380878D-01
     23  0.405024D-02  0.160266D-03 -0.528082D-03 -0.360780D-01  0.573120D-02
     24 -0.800698D-02  0.925917D-03  0.644225D-02  0.604430D-02 -0.379982D-01
     25  0.615229D-02 -0.139117D-02  0.188479D-01  0.936214D-02 -0.163007D-02
     26 -0.152534D-01  0.811889D-02 -0.180962D-01 -0.796118D-02 -0.226690D-03
     27  0.114010D-01 -0.840029D-02  0.189875D-01  0.858490D-02 -0.749963D-03
     28 -0.100046D-01  0.110977D-02 -0.179566D-01 -0.873842D-02  0.653417D-03
     29  0.141365D-01 -0.475166D-02  0.178805D-01  0.802970D-02  0.399539D-03
     30 -0.726914D-02  0.475840D-02 -0.190636D-01 -0.929362D-02  0.180292D-02
     31 -0.141365D-01 -0.178805D-01  0.475166D-02  0.187050D-02 -0.799066D-02
     32 -0.114010D-01 -0.189875D-01  0.840029D-02  0.518831D-02 -0.110215D-02
     33 -0.615229D-02 -0.188479D-01  0.139117D-02 -0.414880D-02  0.389655D-02
     34  0.726914D-02  0.190636D-01 -0.475840D-02  0.105095D-02 -0.209923D-02
     35  0.100046D-01  0.179566D-01 -0.110977D-02  0.436876D-02  0.478928D-02
     36  0.152534D-01  0.180962D-01 -0.811889D-02 -0.496835D-02  0.978799D-02
               21            22            23            24            25 
     21  0.968241D-01
     22  0.626368D-02  0.522357D-01
     23 -0.362552D-01  0.602328D-02  0.526653D-01
     24 -0.345731D-01  0.618790D-02  0.599019D-02  0.529861D-01
     25 -0.875163D-02 -0.167673D-02  0.401753D-03  0.218745D-02  0.221551D-01
     26  0.903912D-02  0.171796D-02 -0.583852D-03 -0.193428D-02 -0.487866D-04
     27 -0.902451D-02 -0.168430D-02  0.511735D-03  0.228161D-02  0.679951D-02
     28  0.876624D-02  0.171039D-02 -0.473870D-03 -0.184011D-02 -0.154044D-01
     29 -0.938492D-02 -0.171738D-02  0.663115D-03  0.196033D-02  0.635876D-02
     30  0.840582D-02  0.167732D-02 -0.322491D-03 -0.216139D-02 -0.158452D-01
     31  0.607711D-02 -0.100955D-01  0.893825D-02  0.608297D-03 -0.297654D-02
     32 -0.417113D-02  0.113314D-01 -0.429984D-03 -0.109373D-01 -0.765729D-03
     33 -0.167107D-02  0.373484D-03 -0.965317D-02  0.117870D-01 -0.382738D-02
     34  0.206690D-02 -0.120519D-01  0.105069D-01  0.578433D-04  0.208541D-02
     35 -0.818134D-02  0.937496D-02  0.113863D-02 -0.114877D-01  0.429622D-02
     36 -0.568127D-02 -0.158293D-02 -0.808456D-02  0.112365D-01  0.123457D-02
               26            27            28            29            30 
     26  0.232374D-01
     27 -0.159374D-01  0.227122D-01
     28  0.734880D-02 -0.247060D-04  0.227285D-01
     29 -0.170377D-01  0.690106D-02 -0.164954D-01  0.226642D-01
     30  0.624854D-02 -0.158359D-01  0.625781D-02 -0.732234D-03  0.213615D-01
     31  0.125110D-02 -0.458900D-03  0.376874D-02 -0.307556D-02  0.115208D-02
     32 -0.122547D-02  0.182963D-02  0.136989D-02 -0.458900D-03 -0.918645D-03
     33  0.123457D-02 -0.765730D-03  0.429622D-02 -0.297654D-02  0.208541D-02
     34  0.168306D-03 -0.918645D-03 -0.283575D-02  0.115208D-02 -0.765029D-03
     35 -0.230827D-02  0.136989D-02 -0.523460D-02  0.376874D-02 -0.283575D-02
     36  0.151774D-03 -0.122548D-02 -0.230827D-02  0.125110D-02  0.168306D-03
               31            32            33            34            35 
     31  0.226642D-01
     32  0.690106D-02  0.227122D-01
     33  0.635876D-02  0.679951D-02  0.221551D-01
     34 -0.732234D-03 -0.158359D-01 -0.158452D-01  0.213615D-01
     35 -0.164954D-01 -0.247062D-04 -0.154044D-01  0.625781D-02  0.227285D-01
     36 -0.170377D-01 -0.159374D-01 -0.487873D-04  0.624854D-02  0.734880D-02
               36 
     36  0.232374D-01
 Leave Link  716 at Fri Mar 20 17:40:22 2026, MaxMem=   536870912 cpu:         1.0
 (Enter C:\G09W\l103.exe)

 GradGradGradGradGradGradGradGradGradGradGradGradGradGradGradGradGradGrad
 Berny optimization.
 Red2BG is reusing G-inverse.
 Internal  Forces:  Max     0.000027710 RMS     0.000008214
 Search for a local minimum.
 Step number   1 out of a maximum of    2
 All quantities printed in internal units (Hartrees-Bohrs-Radians)
 Second derivative matrix not updated -- analytic derivatives used.
 ITU=  0
     Eigenvalues ---    0.00241   0.00358   0.05041   0.05137   0.05574
     Eigenvalues ---    0.05714   0.07896   0.08523   0.11029   0.11198
     Eigenvalues ---    0.12741   0.12887   0.15599   0.16026   0.17672
     Eigenvalues ---    0.18937   0.31014   0.34416   0.34532   0.34556
     Eigenvalues ---    0.34927   0.35230   0.35277   0.48400
 Angle between quadratic step and forces=  74.02 degrees.
 Linear search not attempted -- first point.
 Iteration  1 RMS(Cart)=  0.00037643 RMS(Int)=  0.00000007
 Iteration  2 RMS(Cart)=  0.00000009 RMS(Int)=  0.00000000
 ITry= 1 IFail=0 DXMaxC= 8.92D-04 DCOld= 1.00D+10 DXMaxT= 3.00D-01 DXLimC= 3.00D+00 Rises=F
 Variable       Old X    -DE/DX   Delta X   Delta X   Delta X     New X
                                 (Linear)    (Quad)   (Total)
    R1        3.47267   0.00003   0.00000   0.00016   0.00016   3.47284
    R2        2.06754   0.00000   0.00000   0.00001   0.00001   2.06755
    R3        2.06485   0.00001   0.00000   0.00002   0.00002   2.06487
    R4        2.06815   0.00001   0.00000   0.00001   0.00001   2.06816
    R5        3.47267   0.00003   0.00000   0.00016   0.00016   3.47284
    R6        2.85618  -0.00001   0.00000  -0.00004  -0.00004   2.85614
    R7        2.06815   0.00001   0.00000   0.00001   0.00001   2.06816
    R8        2.06485   0.00001   0.00000   0.00002   0.00002   2.06487
    R9        2.06754   0.00000   0.00000   0.00001   0.00001   2.06755
    A1        1.91122   0.00000   0.00000  -0.00007  -0.00007   1.91115
    A2        1.86730   0.00000   0.00000  -0.00001  -0.00001   1.86729
    A3        1.91939   0.00001   0.00000   0.00008   0.00008   1.91947
    A4        1.91161   0.00000   0.00000  -0.00003  -0.00003   1.91158
    A5        1.93665   0.00000   0.00000   0.00002   0.00002   1.93667
    A6        1.91638   0.00000   0.00000   0.00001   0.00001   1.91639
    A7        1.67179   0.00001   0.00000   0.00001   0.00001   1.67181
    A8        1.87630   0.00000   0.00000   0.00002   0.00002   1.87632
    A9        1.87630   0.00000   0.00000   0.00002   0.00002   1.87632
   A10        1.91939   0.00001   0.00000   0.00008   0.00008   1.91947
   A11        1.86730   0.00000   0.00000  -0.00001  -0.00001   1.86729
   A12        1.91121   0.00000   0.00000  -0.00007  -0.00007   1.91115
   A13        1.91638   0.00000   0.00000   0.00001   0.00001   1.91639
   A14        1.93665   0.00000   0.00000   0.00002   0.00002   1.93667
   A15        1.91161   0.00000   0.00000  -0.00003  -0.00003   1.91158
    D1        1.02465   0.00001   0.00000   0.00063   0.00063   1.02527
    D2       -0.90260   0.00000   0.00000   0.00060   0.00060  -0.90200
    D3        3.09495   0.00000   0.00000   0.00055   0.00055   3.09550
    D4        1.16771   0.00000   0.00000   0.00052   0.00052   1.16822
    D5       -1.10775   0.00000   0.00000   0.00059   0.00059  -1.10716
    D6       -3.03500   0.00000   0.00000   0.00056   0.00056  -3.03443
    D7        1.10775   0.00000   0.00000  -0.00059  -0.00059   1.10716
    D8       -3.09495   0.00000   0.00000  -0.00055  -0.00055  -3.09550
    D9       -1.02465  -0.00001   0.00000  -0.00063  -0.00063  -1.02527
   D10        3.03500   0.00000   0.00000  -0.00056  -0.00056   3.03443
   D11       -1.16771   0.00000   0.00000  -0.00052  -0.00052  -1.16822
   D12        0.90260   0.00000   0.00000  -0.00060  -0.00060   0.90200
         Item               Value     Threshold  Converged?
 Maximum Force            0.000028     0.000450     YES
 RMS     Force            0.000008     0.000300     YES
 Maximum Displacement     0.000892     0.001800     YES
 RMS     Displacement     0.000376     0.001200     YES
 Predicted change in Energy=-1.366213D-08
 Optimization completed.
    -- Stationary point found.
                           ----------------------------
                           !   Optimized Parameters   !
                           ! (Angstroms and Degrees)  !
 --------------------------                            --------------------------
 ! Name  Definition              Value          Derivative Info.                !
 --------------------------------------------------------------------------------
 ! R1    R(1,2)                  1.8377         -DE/DX =    0.0                 !
 ! R2    R(1,5)                  1.0941         -DE/DX =    0.0                 !
 ! R3    R(1,6)                  1.0927         -DE/DX =    0.0                 !
 ! R4    R(1,7)                  1.0944         -DE/DX =    0.0                 !
 ! R5    R(2,3)                  1.8377         -DE/DX =    0.0                 !
 ! R6    R(2,4)                  1.5114         -DE/DX =    0.0                 !
 ! R7    R(3,8)                  1.0944         -DE/DX =    0.0                 !
 ! R8    R(3,9)                  1.0927         -DE/DX =    0.0                 !
 ! R9    R(3,10)                 1.0941         -DE/DX =    0.0                 !
 ! A1    A(2,1,5)              109.5046         -DE/DX =    0.0                 !
 ! A2    A(2,1,6)              106.9887         -DE/DX =    0.0                 !
 ! A3    A(2,1,7)              109.9727         -DE/DX =    0.0                 !
 ! A4    A(5,1,6)              109.5269         -DE/DX =    0.0                 !
 ! A5    A(5,1,7)              110.9619         -DE/DX =    0.0                 !
 ! A6    A(6,1,7)              109.8005         -DE/DX =    0.0                 !
 ! A7    A(1,2,3)               95.7866         -DE/DX =    0.0                 !
 ! A8    A(1,2,4)              107.5039         -DE/DX =    0.0                 !
 ! A9    A(3,2,4)              107.5039         -DE/DX =    0.0                 !
 ! A10   A(2,3,8)              109.9727         -DE/DX =    0.0                 !
 ! A11   A(2,3,9)              106.9887         -DE/DX =    0.0                 !
 ! A12   A(2,3,10)             109.5046         -DE/DX =    0.0                 !
 ! A13   A(8,3,9)              109.8005         -DE/DX =    0.0                 !
 ! A14   A(8,3,10)             110.9619         -DE/DX =    0.0                 !
 ! A15   A(9,3,10)             109.5269         -DE/DX =    0.0                 !
 ! D1    D(5,1,2,3)             58.7079         -DE/DX =    0.0                 !
 ! D2    D(5,1,2,4)            -51.7151         -DE/DX =    0.0                 !
 ! D3    D(6,1,2,3)            177.3276         -DE/DX =    0.0                 !
 ! D4    D(6,1,2,4)             66.9046         -DE/DX =    0.0                 !
 ! D5    D(7,1,2,3)            -63.4696         -DE/DX =    0.0                 !
 ! D6    D(7,1,2,4)           -173.8925         -DE/DX =    0.0                 !
 ! D7    D(1,2,3,8)             63.4696         -DE/DX =    0.0                 !
 ! D8    D(1,2,3,9)           -177.3276         -DE/DX =    0.0                 !
 ! D9    D(1,2,3,10)           -58.7079         -DE/DX =    0.0                 !
 ! D10   D(4,2,3,8)            173.8925         -DE/DX =    0.0                 !
 ! D11   D(4,2,3,9)            -66.9046         -DE/DX =    0.0                 !
 ! D12   D(4,2,3,10)            51.7151         -DE/DX =    0.0                 !
 --------------------------------------------------------------------------------
 GradGradGradGradGradGradGradGradGradGradGradGradGradGradGradGradGradGrad

 Leave Link  103 at Fri Mar 20 17:40:22 2026, MaxMem=   536870912 cpu:         0.0
 (Enter C:\G09W\l9999.exe)
 1|1|UNPC-DESKTOP-GS7R1K3|Freq|RB3LYP|6-31G(d)|C2H6O1S1|1172|20-Mar-202
 6|0||#P Geom=AllCheck Guess=TCheck SCRF=Check GenChk RB3LYP/6-31G(d) F
 req||dimethylsulfoxide rdkit||0,1|C,-1.1729848533,-0.3911866567,-0.617
 1091374|S,0.0101177731,0.9936664301,-0.3733050066|C,1.3031125319,-0.01
 1785858,0.4598940005|O,-0.5825936841,1.9208607513,0.6627486015|H,-1.43
 12486684,-0.8260847121,0.3530493165|H,-2.0689376045,0.0317187633,-1.07
 79233083|H,-0.7355058744,-1.144316618,-1.2797994814|H,1.6847863505,-0.
 7734664787,-0.2270694764|H,2.1085132654,0.6718100196,0.7391006596|H,0.
 8847407673,-0.4712166403,1.3604118335||Version=EM64W-G09RevD.01|State=
 1-A|HF=-553.1869359|RMSD=2.317e-009|RMSF=1.139e-005|ZeroPoint=0.079876
 2|Thermal=0.085532|Dipole=0.4523989,-1.368017,-0.5581757|DipoleDeriv=-
 0.1195225,-0.0897144,-0.0421503,-0.1175089,-0.2179805,-0.0745497,0.009
 0113,0.0519428,-0.0134205,0.7495287,-0.2010523,0.0338722,-0.1036977,1.
 1700767,0.0845967,-0.0004234,0.3084212,0.6257798,-0.1247417,0.0415077,
 -0.0422825,0.1457468,-0.157414,0.0402836,-0.1203735,0.089542,-0.068767
 8,-0.5315525,0.2598723,0.0747312,0.0636283,-0.8298151,-0.015737,0.1438
 63,-0.4669143,-0.6254964,0.0440621,-0.0610104,-0.0067329,-0.0673272,-0
 .0022328,0.0259941,0.0278614,0.0498355,-0.0451158,-0.0322917,0.0196504
 ,-0.0664802,0.0196545,0.0468322,0.0140186,-0.0545729,0.0219996,0.06588
 92,0.0120176,0.0215559,0.0384056,-0.0035288,-0.0382561,-0.0863442,0.03
 93562,-0.065951,0.0207582,0.0248719,0.0521788,0.0080979,0.0839613,-0.0
 2046,-0.0537901,0.0047879,-0.0587847,-0.0098922,-0.0201165,-0.0519069,
 -0.0403829,-0.0474933,0.0252933,-0.0120007,-0.0538465,-0.0098251,0.075
 253,-0.0022553,0.0089189,0.0429219,0.0265651,0.0239563,0.0775288,0.004
 3365,0.0797343,-0.0249875|Polar=45.67323,-1.4347727,44.7903638,3.65232
 75,4.0918267,37.2036269|PG=C01 [X(C2H6O1S1)]|NImag=0||0.48035229,-0.11
 474173,0.44832321,-0.02440503,-0.02197454,0.57010513,-0.09216549,-0.03
 937572,0.03109447,0.31560503,-0.03374402,-0.09006466,0.02584491,-0.066
 58563,0.37133364,-0.00668992,-0.00764800,-0.05631361,-0.08342157,0.117
 07633,0.41966577,-0.01735459,0.00870143,-0.01591066,-0.07091344,0.0079
 8701,-0.00482465,0.45614191,-0.01771403,0.01300486,-0.00876059,0.03173
 479,-0.07327343,0.02215165,0.08751926,0.51087463,-0.00241609,0.0047967
 9,-0.00026544,-0.04899087,0.03030875,-0.09435688,-0.07374451,0.0600543
 9,0.53176410,0.01394736,-0.00483662,-0.01704947,-0.11557169,0.09736990
 ,0.11296266,-0.00330885,0.01379907,0.02049901,0.10207591,0.01513563,-0
 .01470147,-0.02561895,0.08394170,-0.18716686,-0.14520153,0.01108549,-0
 .01206145,-0.02047715,-0.10928476,0.21367615,0.00441023,-0.00695932,0.
 00360190,0.11769308,-0.17607381,-0.26007532,-0.00704048,0.00054199,0.0
 1821808,-0.11531779,0.18837005,0.23393691,-0.05973983,-0.02162843,0.05
 938982,-0.01332301,-0.01462090,0.01760803,0.00153644,0.00046896,0.0015
 6025,0.00319942,0.00377339,-0.00278982,0.06264995,-0.01994189,-0.08907
 206,0.10007234,-0.01515820,-0.01414049,0.01989551,0.00253198,0.0006492
 8,-0.00028176,0.00469462,0.00424642,-0.00316741,0.02618284,0.09019074,
 0.05566495,0.09559905,-0.26738748,-0.00416363,-0.00394434,0.00499136,0
 .00023965,-0.00105370,0.00123535,0.00049721,0.00220138,0.00049557,-0.0
 5972189,-0.10518834,0.28409868,-0.23382708,0.09315089,-0.09683899,-0.0
 1552953,0.00816838,-0.00632884,-0.00303424,-0.00437015,0.00011148,0.00
 260516,-0.00052070,0.00020172,0.00855633,-0.00349720,0.00404674,0.2493
 3559,0.09073232,-0.08833937,0.04574891,-0.01953742,0.00843138,-0.00921
 403,-0.00376912,-0.00496067,-0.00057533,0.00215730,0.00101558,0.001040
 07,0.01070151,-0.00447304,0.00400264,-0.09687579,0.09441068,-0.0953886
 9,0.04785795,-0.09951340,-0.00257075,0.00092138,-0.00132406,-0.0007702
 6,-0.00082415,0.00002925,0.00130330,-0.00015696,-0.00052541,-0.0241967
 6,0.01020932,-0.01016903,0.10406389,-0.05135239,0.10084013,-0.09080682
 ,0.07536062,0.06650415,0.01053796,-0.00913430,-0.01177345,-0.00013541,
 0.00137079,0.00040597,-0.00306883,-0.00627287,-0.00112762,-0.00288737,
 0.00523041,0.00265905,-0.00807032,0.01783451,0.01767736,0.09527454,0.0
 7886390,-0.17691653,-0.11475424,0.01154902,-0.00951454,-0.01053122,0.0
 0082034,0.00092231,0.00033152,-0.00395299,-0.00534337,-0.00086928,-0.0
 0550873,0.01180895,0.00844229,0.00326011,-0.00728860,-0.00684650,-0.08
 423384,0.18564720,0.06924573,-0.11254307,-0.14893004,0.00078155,-0.000
 90987,-0.00348061,0.00019100,0.00027704,-0.00017921,-0.00046249,-0.001
 50158,0.00109011,0.00954722,-0.02070959,-0.01354352,-0.00482782,0.0110
 8208,0.00967592,-0.07371702,0.12396131,0.15505252,0.00065746,-0.001181
 78,0.00017869,-0.00475401,0.00984060,0.01522357,-0.07889200,0.06605689
 ,0.06297367,-0.00392203,0.00539004,-0.00298159,-0.00020703,0.00001420,
 0.00003731,0.00039626,-0.00004573,-0.00016069,-0.00103084,-0.00061428,
 -0.00069028,0.08044372,-0.00081854,0.00026146,-0.00046899,0.00113292,-
 0.00784409,-0.00990603,0.06493158,-0.18075658,-0.12214929,0.00326732,-
 0.00242995,0.00204405,0.00008768,0.00006900,0.00006375,-0.00012332,-0.
 00000386,0.00024698,-0.00009826,0.00064596,0.00021563,-0.07071039,0.19
 013962,0.00045962,-0.00084491,-0.00031123,-0.00155014,0.00800534,0.010
 14092,0.05939439,-0.11889338,-0.15700480,-0.00371618,0.00312963,-0.000
 97010,-0.00006921,-0.00011598,-0.00001331,0.00023134,0.00029024,0.0000
 2925,-0.00080008,-0.00002565,0.00027020,-0.06505817,0.13215866,0.16539
 092,-0.00347673,0.00361697,-0.00297171,-0.01420278,-0.01285523,-0.0061
 2550,-0.19780819,-0.13302865,-0.04916275,0.00202221,0.00098983,0.00224
 218,0.00058339,0.00050914,-0.00001080,-0.00074244,-0.00140800,-0.00029
 903,0.00028440,-0.00003257,-0.00006409,0.01132547,0.00820277,0.0035159
 8,0.20955305,0.00312190,-0.00267057,0.00197905,0.01306338,0.01017415,0
 .00490875,-0.13001121,-0.15766496,-0.04536105,-0.00183235,0.00064940,-
 0.00034377,0.00009339,-0.00020326,-0.00013325,0.00100359,0.00149483,0.
 00014448,-0.00007389,0.00000836,0.00024018,-0.01715905,-0.01234853,-0.
 00415291,0.14047768,0.16808183,-0.00212730,0.00247149,-0.00181836,-0.0
 0925402,-0.00933551,-0.00439358,-0.05082402,-0.04609324,-0.06620671,0.
 00119138,0.00052177,0.00042372,-0.00017086,0.00000978,0.00016605,-0.00
 083773,-0.00098701,0.00043450,0.00031517,0.00036683,0.00012889,-0.0151
 8907,-0.01102528,-0.00465993,0.05645599,0.04724354,0.06695152,0.002413
 42,0.00093435,0.00000873,0.00031695,0.01357419,-0.02663033,-0.08623164
 ,-0.04583693,0.08876384,0.00202133,-0.00423774,0.00471011,-0.00036830,
 -0.00056590,0.00075141,0.00031026,0.00021042,0.00034164,-0.00009732,-0
 .00015096,-0.00000380,-0.00401700,-0.00587175,0.00759244,-0.00753839,-
 0.00868346,0.02044045,0.09319069,-0.00089355,0.00017513,-0.00206791,-0
 .00076483,-0.00793510,0.01846855,-0.04979676,-0.09673399,0.09335313,-0
 .00138147,0.00211556,-0.00458257,0.00045028,0.00092446,0.00001051,-0.0
 0019581,-0.00028693,-0.00020011,0.00001683,0.00003026,-0.00011213,0.00
 840950,0.01226696,-0.01955104,-0.00647195,-0.00752125,0.01682763,0.050
 62777,0.09696489,0.00124651,-0.00075544,0.00083253,0.00038187,0.008106
 82,-0.01485399,0.09328953,0.09259998,-0.23323374,0.00009236,-0.0012666
 6,0.00380453,-0.00115678,-0.00072387,0.00012632,0.00017822,-0.00003518
 ,0.00052285,-0.00014354,-0.00007506,-0.00008428,0.00566656,0.00882051,
 -0.01287191,-0.00358026,-0.00452503,0.00897390,-0.09597447,-0.10214606
 ,0.24678379||0.00000190,0.00001918,0.00000949,0.00001400,-0.00004332,-
 0.00001691,-0.00001289,0.00001692,0.00000305,-0.00000645,0.00000419,0.
 00001336,0.00000531,-0.00000277,-0.00000376,0.00000600,-0.00000250,0.0
 0000382,0.00000220,0.00000860,0.00000057,-0.00000401,0.00000765,-0.000
 00213,-0.00000601,-0.00000435,-0.00000140,-0.00000005,-0.00000359,-0.0
 0000609|||@


 WE DON'T KNOW ONE MILLIONTH OF ONE PERCENT ABOUT
 ANYTHING.
                                     T. A. EDISON.
 Job cpu time:       0 days  0 hours  0 minutes 29.0 seconds.
 File lengths (MBytes):  RWF=     11 Int=      0 D2E=      0 Chk=      2 Scr=      1
 Normal termination of Gaussian 09 at Fri Mar 20 17:40:22 2026.
