 Entering Gaussian System, Link 0=C:\G09W\g09.exe
 Input=butane_rdkit.com
 Output=C:\workspace\delta_chem\data\raw\butane\butane_rdkit.out
 Initial command:
 C:\G09W\l1.exe ".\Gau-3308.inp" "C:\workspace\delta_chem\data\raw\butane\butane_rdkit.out" /scrdir=".\"
 Entering Link 1 = C:\G09W\l1.exe PID=     15696.
  
 Copyright (c) 1988,1990,1992,1993,1995,1998,2003,2009,2013,
            Gaussian, Inc.  All Rights Reserved.
  
 This is part of the Gaussian(R) 09 program.  It is based on
 the Gaussian(R) 03 system (copyright 2003, Gaussian, Inc.),
 the Gaussian(R) 98 system (copyright 1998, Gaussian, Inc.),
 the Gaussian(R) 94 system (copyright 1995, Gaussian, Inc.),
 the Gaussian 92(TM) system (copyright 1992, Gaussian, Inc.),
 the Gaussian 90(TM) system (copyright 1990, Gaussian, Inc.),
 the Gaussian 88(TM) system (copyright 1988, Gaussian, Inc.),
 the Gaussian 86(TM) system (copyright 1986, Carnegie Mellon
 University), and the Gaussian 82(TM) system (copyright 1983,
 Carnegie Mellon University). Gaussian is a federally registered
 trademark of Gaussian, Inc.
  
 This software contains proprietary and confidential information,
 including trade secrets, belonging to Gaussian, Inc.
  
 This software is provided under written license and may be
 used, copied, transmitted, or stored only in accord with that
 written license.
  
 The following legend is applicable only to US Government
 contracts under FAR:
  
                    RESTRICTED RIGHTS LEGEND
  
 Use, reproduction and disclosure by the US Government is
 subject to restrictions as set forth in subparagraphs (a)
 and (c) of the Commercial Computer Software - Restricted
 Rights clause in FAR 52.227-19.
  
 Gaussian, Inc.
 340 Quinnipiac St., Bldg. 40, Wallingford CT 06492
  
  
 ---------------------------------------------------------------
 Warning -- This program may not be used in any manner that
 competes with the business of Gaussian, Inc. or will provide
 assistance to any competitor of Gaussian, Inc.  The licensee
 of this program is prohibited from giving any competitor of
 Gaussian, Inc. access to this program.  By using this program,
 the user acknowledges that Gaussian, Inc. is engaged in the
 business of creating and licensing software in the field of
 computational chemistry and represents and warrants to the
 licensee that it is not a competitor of Gaussian, Inc. and that
 it will not use this program in any manner prohibited above.
 ---------------------------------------------------------------
  

 Cite this work as:
 Gaussian 09, Revision D.01,
 M. J. Frisch, G. W. Trucks, H. B. Schlegel, G. E. Scuseria, 
 M. A. Robb, J. R. Cheeseman, G. Scalmani, V. Barone, B. Mennucci, 
 G. A. Petersson, H. Nakatsuji, M. Caricato, X. Li, H. P. Hratchian, 
 A. F. Izmaylov, J. Bloino, G. Zheng, J. L. Sonnenberg, M. Hada, 
 M. Ehara, K. Toyota, R. Fukuda, J. Hasegawa, M. Ishida, T. Nakajima, 
 Y. Honda, O. Kitao, H. Nakai, T. Vreven, J. A. Montgomery, Jr., 
 J. E. Peralta, F. Ogliaro, M. Bearpark, J. J. Heyd, E. Brothers, 
 K. N. Kudin, V. N. Staroverov, T. Keith, R. Kobayashi, J. Normand, 
 K. Raghavachari, A. Rendell, J. C. Burant, S. S. Iyengar, J. Tomasi, 
 M. Cossi, N. Rega, J. M. Millam, M. Klene, J. E. Knox, J. B. Cross, 
 V. Bakken, C. Adamo, J. Jaramillo, R. Gomperts, R. E. Stratmann, 
 O. Yazyev, A. J. Austin, R. Cammi, C. Pomelli, J. W. Ochterski, 
 R. L. Martin, K. Morokuma, V. G. Zakrzewski, G. A. Voth, 
 P. Salvador, J. J. Dannenberg, S. Dapprich, A. D. Daniels, 
 O. Farkas, J. B. Foresman, J. V. Ortiz, J. Cioslowski, 
 and D. J. Fox, Gaussian, Inc., Wallingford CT, 2013.
 
 ******************************************
 Gaussian 09:  EM64W-G09RevD.01 13-Apr-2013
                19-Mar-2026 
 ******************************************
 %NProcShared=4
 Will use up to    4 processors via shared memory.
 %Mem=4GB
 %Chk=butane_rdkit.chk
 ---------------------
 #p opt B3LYP/6-31G(d)
 ---------------------
 1/14=-1,18=20,19=15,26=3,38=1/1,3;
 2/9=110,12=2,17=6,18=5,40=1/2;
 3/5=1,6=6,7=1,11=2,16=1,25=1,30=1,71=1,74=-5/1,2,3;
 4//1;
 5/5=2,38=5/2;
 6/7=2,8=2,9=2,10=2,28=1/1;
 7//1,2,3,16;
 1/14=-1,18=20,19=15,26=3/3(2);
 2/9=110/2;
 99//99;
 2/9=110/2;
 3/5=1,6=6,7=1,11=2,16=1,25=1,30=1,71=1,74=-5/1,2,3;
 4/5=5,16=3,69=1/1;
 5/5=2,38=5/2;
 7//1,2,3,16;
 1/14=-1,18=20,19=15,26=3/3(-5);
 2/9=110/2;
 6/7=2,8=2,9=2,10=2,19=2,28=1/1;
 99/9=1/99;
 Leave Link    1 at Thu Mar 19 18:04:05 2026, MaxMem=   536870912 cpu:         1.0
 (Enter C:\G09W\l101.exe)
 ------
 butane
 ------
 Symbolic Z-matrix:
 Charge =  0 Multiplicity = 1
 C                    -1.57522   0.46947   0.02709 
 C                    -0.55694  -0.31457  -0.78629 
 C                     0.64857  -0.77829   0.03188 
 C                     1.50511   0.36668   0.55011 
 H                    -1.16252   1.4201    0.37729 
 H                    -1.90972  -0.10479   0.89681 
 H                    -2.45269   0.69552  -0.5873 
 H                    -0.22095   0.29431  -1.6337 
 H                    -1.05225  -1.1977   -1.20719 
 H                     0.31306  -1.39292   0.87531 
 H                     1.27185  -1.42142  -0.60082 
 H                     2.39666  -0.02721   1.04865 
 H                     0.96155   0.97686   1.27736 
 H                     1.8335    1.01395  -0.2692 
 
 NAtoms=     14 NQM=       14 NQMF=       0 NMMI=      0 NMMIF=      0
                NMic=       0 NMicF=      0.
                    Isotopes and Nuclear Properties:
 (Nuclear quadrupole moments (NQMom) in fm**2, nuclear magnetic moments (NMagM)
  in nuclear magnetons)

  Atom         1           2           3           4           5           6           7           8           9          10
 IAtWgt=          12          12          12          12           1           1           1           1           1           1
 AtmWgt=  12.0000000  12.0000000  12.0000000  12.0000000   1.0078250   1.0078250   1.0078250   1.0078250   1.0078250   1.0078250
 NucSpn=           0           0           0           0           1           1           1           1           1           1
 AtZEff=   0.0000000   0.0000000   0.0000000   0.0000000   0.0000000   0.0000000   0.0000000   0.0000000   0.0000000   0.0000000
 NQMom=    0.0000000   0.0000000   0.0000000   0.0000000   0.0000000   0.0000000   0.0000000   0.0000000   0.0000000   0.0000000
 NMagM=    0.0000000   0.0000000   0.0000000   0.0000000   2.7928460   2.7928460   2.7928460   2.7928460   2.7928460   2.7928460
 AtZNuc=   6.0000000   6.0000000   6.0000000   6.0000000   1.0000000   1.0000000   1.0000000   1.0000000   1.0000000   1.0000000

  Atom        11          12          13          14
 IAtWgt=           1           1           1           1
 AtmWgt=   1.0078250   1.0078250   1.0078250   1.0078250
 NucSpn=           1           1           1           1
 AtZEff=   0.0000000   0.0000000   0.0000000   0.0000000
 NQMom=    0.0000000   0.0000000   0.0000000   0.0000000
 NMagM=    2.7928460   2.7928460   2.7928460   2.7928460
 AtZNuc=   1.0000000   1.0000000   1.0000000   1.0000000
 Leave Link  101 at Thu Mar 19 18:04:05 2026, MaxMem=   536870912 cpu:         0.0
 (Enter C:\G09W\l103.exe)

 GradGradGradGradGradGradGradGradGradGradGradGradGradGradGradGradGradGrad
 Berny optimization.
 Initialization pass.
                           ----------------------------
                           !    Initial Parameters    !
                           ! (Angstroms and Degrees)  !
 --------------------------                            --------------------------
 ! Name  Definition              Value          Derivative Info.                !
 --------------------------------------------------------------------------------
 ! R1    R(1,2)                  1.5209         estimate D2E/DX2                !
 ! R2    R(1,5)                  1.0939         estimate D2E/DX2                !
 ! R3    R(1,6)                  1.0946         estimate D2E/DX2                !
 ! R4    R(1,7)                  1.0948         estimate D2E/DX2                !
 ! R5    R(2,3)                  1.529          estimate D2E/DX2                !
 ! R6    R(2,8)                  1.0962         estimate D2E/DX2                !
 ! R7    R(2,9)                  1.0965         estimate D2E/DX2                !
 ! R8    R(3,4)                  1.5209         estimate D2E/DX2                !
 ! R9    R(3,10)                 1.0962         estimate D2E/DX2                !
 ! R10   R(3,11)                 1.0965         estimate D2E/DX2                !
 ! R11   R(4,12)                 1.0948         estimate D2E/DX2                !
 ! R12   R(4,13)                 1.0939         estimate D2E/DX2                !
 ! R13   R(4,14)                 1.0946         estimate D2E/DX2                !
 ! A1    A(2,1,5)              111.506          estimate D2E/DX2                !
 ! A2    A(2,1,6)              111.044          estimate D2E/DX2                !
 ! A3    A(2,1,7)              110.056          estimate D2E/DX2                !
 ! A4    A(5,1,6)              108.4727         estimate D2E/DX2                !
 ! A5    A(5,1,7)              107.6139         estimate D2E/DX2                !
 ! A6    A(6,1,7)              108.0173         estimate D2E/DX2                !
 ! A7    A(1,2,3)              113.4565         estimate D2E/DX2                !
 ! A8    A(1,2,8)              109.4077         estimate D2E/DX2                !
 ! A9    A(1,2,9)              108.5438         estimate D2E/DX2                !
 ! A10   A(3,2,8)              109.9045         estimate D2E/DX2                !
 ! A11   A(3,2,9)              108.4987         estimate D2E/DX2                !
 ! A12   A(8,2,9)              106.8015         estimate D2E/DX2                !
 ! A13   A(2,3,4)              113.4565         estimate D2E/DX2                !
 ! A14   A(2,3,10)             109.9045         estimate D2E/DX2                !
 ! A15   A(2,3,11)             108.4987         estimate D2E/DX2                !
 ! A16   A(4,3,10)             109.4077         estimate D2E/DX2                !
 ! A17   A(4,3,11)             108.5438         estimate D2E/DX2                !
 ! A18   A(10,3,11)            106.8015         estimate D2E/DX2                !
 ! A19   A(3,4,12)             110.056          estimate D2E/DX2                !
 ! A20   A(3,4,13)             111.5059         estimate D2E/DX2                !
 ! A21   A(3,4,14)             111.0441         estimate D2E/DX2                !
 ! A22   A(12,4,13)            107.6139         estimate D2E/DX2                !
 ! A23   A(12,4,14)            108.0173         estimate D2E/DX2                !
 ! A24   A(13,4,14)            108.4727         estimate D2E/DX2                !
 ! D1    D(5,1,2,3)             65.7074         estimate D2E/DX2                !
 ! D2    D(5,1,2,8)            -57.4096         estimate D2E/DX2                !
 ! D3    D(5,1,2,9)           -173.605          estimate D2E/DX2                !
 ! D4    D(6,1,2,3)            -55.3905         estimate D2E/DX2                !
 ! D5    D(6,1,2,8)           -178.5075         estimate D2E/DX2                !
 ! D6    D(6,1,2,9)             65.2971         estimate D2E/DX2                !
 ! D7    D(7,1,2,3)           -174.9459         estimate D2E/DX2                !
 ! D8    D(7,1,2,8)             61.9372         estimate D2E/DX2                !
 ! D9    D(7,1,2,9)            -54.2582         estimate D2E/DX2                !
 ! D10   D(1,2,3,4)            -65.297          estimate D2E/DX2                !
 ! D11   D(1,2,3,10)            57.5464         estimate D2E/DX2                !
 ! D12   D(1,2,3,11)           173.9899         estimate D2E/DX2                !
 ! D13   D(8,2,3,4)             57.5465         estimate D2E/DX2                !
 ! D14   D(8,2,3,10)          -179.6101         estimate D2E/DX2                !
 ! D15   D(8,2,3,11)           -63.1667         estimate D2E/DX2                !
 ! D16   D(9,2,3,4)            173.9899         estimate D2E/DX2                !
 ! D17   D(9,2,3,10)           -63.1667         estimate D2E/DX2                !
 ! D18   D(9,2,3,11)            53.2767         estimate D2E/DX2                !
 ! D19   D(2,3,4,12)          -174.9462         estimate D2E/DX2                !
 ! D20   D(2,3,4,13)            65.7071         estimate D2E/DX2                !
 ! D21   D(2,3,4,14)           -55.3908         estimate D2E/DX2                !
 ! D22   D(10,3,4,12)           61.9369         estimate D2E/DX2                !
 ! D23   D(10,3,4,13)          -57.4097         estimate D2E/DX2                !
 ! D24   D(10,3,4,14)         -178.5077         estimate D2E/DX2                !
 ! D25   D(11,3,4,12)          -54.2585         estimate D2E/DX2                !
 ! D26   D(11,3,4,13)         -173.6052         estimate D2E/DX2                !
 ! D27   D(11,3,4,14)           65.2969         estimate D2E/DX2                !
 --------------------------------------------------------------------------------
 Trust Radius=3.00D-01 FncErr=1.00D-07 GrdErr=1.00D-06
 Number of steps in this run=     74 maximum allowed number of steps=    100.
 GradGradGradGradGradGradGradGradGradGradGradGradGradGradGradGradGradGrad

 Leave Link  103 at Thu Mar 19 18:04:05 2026, MaxMem=   536870912 cpu:         0.0
 (Enter C:\G09W\l202.exe)
                          Input orientation:                          
 ---------------------------------------------------------------------
 Center     Atomic      Atomic             Coordinates (Angstroms)
 Number     Number       Type             X           Y           Z
 ---------------------------------------------------------------------
      1          6           0       -1.575217    0.469467    0.027091
      2          6           0       -0.556942   -0.314570   -0.786290
      3          6           0        0.648571   -0.778287    0.031876
      4          6           0        1.505112    0.366682    0.550114
      5          1           0       -1.162517    1.420101    0.377286
      6          1           0       -1.909718   -0.104792    0.896806
      7          1           0       -2.452692    0.695521   -0.587298
      8          1           0       -0.220952    0.294308   -1.633701
      9          1           0       -1.052250   -1.197697   -1.207185
     10          1           0        0.313063   -1.392923    0.875311
     11          1           0        1.271845   -1.421416   -0.600824
     12          1           0        2.396656   -0.027206    1.048649
     13          1           0        0.961547    0.976856    1.277361
     14          1           0        1.833495    1.013955   -0.269196
 ---------------------------------------------------------------------
                    Distance matrix (angstroms):
                    1          2          3          4          5
     1  C    0.000000
     2  C    1.520916   0.000000
     3  C    2.549931   1.528951   0.000000
     4  C    3.126107   2.549931   1.520917   0.000000
     5  H    1.093921   2.174790   2.869191   2.873292   0.000000
     6  H    1.094563   2.169521   2.783261   3.464614   1.775812
     7  H    1.094777   2.157255   3.489028   4.131108   1.766349
     8  H    2.150103   1.096233   2.163487   2.784526   2.489583
     9  H    2.139245   1.096538   2.145686   3.474979   3.061956
    10  H    2.784524   2.163486   1.096232   2.150103   3.215349
    11  H    3.474979   2.145686   1.096538   2.139244   3.867433
    12  H    4.131106   3.489029   2.157255   1.094777   3.900402
    13  H    2.873289   2.869189   2.174791   1.093921   2.349095
    14  H    3.464617   2.783263   2.169521   1.094562   3.091760
                    6          7          8          9         10
     6  H    0.000000
     7  H    1.771408   0.000000
     8  H    3.068335   2.497317   0.000000
     9  H    2.521204   2.435112   1.760412   0.000000
    10  H    2.569144   3.761678   3.070352   2.497796   0.000000
    11  H    3.754829   4.284131   2.497796   2.412290   1.760412
    12  H    4.309749   5.168639   3.761681   4.284132   2.497316
    13  H    3.091755   3.900401   3.215347   3.867432   2.489584
    14  H    4.077107   4.309755   2.569147   3.754831   3.068334
                   11         12         13         14
    11  H    0.000000
    12  H    2.435114   0.000000
    13  H    3.061956   1.766349   0.000000
    14  H    2.521202   1.771407   1.775812   0.000000
 Stoichiometry    C4H10
 Framework group  C1[X(C4H10)]
 Deg. of freedom    36
 Full point group                 C1      NOp   1
 Largest Abelian subgroup         C1      NOp   1
 Largest concise Abelian subgroup C1      NOp   1
                         Standard orientation:                         
 ---------------------------------------------------------------------
 Center     Atomic      Atomic             Coordinates (Angstroms)
 Number     Number       Type             X           Y           Z
 ---------------------------------------------------------------------
      1          6           0        1.557800   -0.555203    0.128046
      2          6           0        0.697903    0.619577   -0.312017
      3          6           0       -0.697902    0.619577    0.312017
      4          6           0       -1.557800   -0.555203   -0.128046
      5          1           0        1.151786   -1.505746   -0.230122
      6          1           0        1.633891   -0.599671    1.219055
      7          1           0        2.569318   -0.452990   -0.278058
      8          1           0        0.617926    0.623084   -1.405324
      9          1           0        1.205811    1.549079   -0.028379
     10          1           0       -0.617925    0.623084    1.405323
     11          1           0       -1.205811    1.549079    0.028380
     12          1           0       -2.569317   -0.452993    0.278061
     13          1           0       -1.151783   -1.505746    0.230118
     14          1           0       -1.633895   -0.599668   -1.219054
 ---------------------------------------------------------------------
 Rotational constants (GHZ):     13.3350126      4.8148184      4.1113748
 Leave Link  202 at Thu Mar 19 18:04:06 2026, MaxMem=   536870912 cpu:         0.0
 (Enter C:\G09W\l301.exe)
 Standard basis: 6-31G(d) (6D, 7F)
 Ernie: Thresh=  0.10000D-02 Tol=  0.10000D-05 Strict=F.
 There are    80 symmetry adapted cartesian basis functions of A   symmetry.
 There are    80 symmetry adapted basis functions of A   symmetry.
    80 basis functions,   152 primitive gaussians,    80 cartesian basis functions
    17 alpha electrons       17 beta electrons
       nuclear repulsion energy       132.8918296358 Hartrees.
 IExCor=  402 DFT=T Ex+Corr=B3LYP ExCW=0 ScaHFX=  0.200000
 ScaDFX=  0.800000  0.720000  1.000000  0.810000 ScalE2=  1.000000  1.000000
 IRadAn=      0 IRanWt=     -1 IRanGd=            0 ICorTp=0 IEmpDi=  4
 NAtoms=   14 NActive=   14 NUniq=   14 SFac= 1.00D+00 NAtFMM=   60 NAOKFM=F Big=F
 Integral buffers will be    131072 words long.
 Raffenetti 2 integral format.
 Two-electron integral symmetry is turned on.
 Leave Link  301 at Thu Mar 19 18:04:06 2026, MaxMem=   536870912 cpu:         0.0
 (Enter C:\G09W\l302.exe)
 NPDir=0 NMtPBC=     1 NCelOv=     1 NCel=       1 NClECP=     1 NCelD=      1
         NCelK=      1 NCelE2=     1 NClLst=     1 CellRange=     0.0.
 One-electron integrals computed using PRISM.
 NBasis=    80 RedAO= T EigKep=  5.33D-03  NBF=    80
 NBsUse=    80 1.00D-06 EigRej= -1.00D+00 NBFU=    80
 Precomputing XC quadrature grid using
 IXCGrd= 4 IRadAn=           0 IRanWt=          -1 IRanGd=           0 AccXCQ= 0.00D+00.
 Generated NRdTot=       0 NPtTot=           0 NUsed=           0 NTot=          32
 NSgBfM=    80    80    80    80    80 MxSgAt=    14 MxSgA2=    14.
 Leave Link  302 at Thu Mar 19 18:04:06 2026, MaxMem=   536870912 cpu:         0.0
 (Enter C:\G09W\l303.exe)
 DipDrv:  MaxL=1.
 Leave Link  303 at Thu Mar 19 18:04:06 2026, MaxMem=   536870912 cpu:         0.0
 (Enter C:\G09W\l401.exe)
 ExpMin= 1.61D-01 ExpMax= 3.05D+03 ExpMxC= 4.57D+02 IAcc=1 IRadAn=         1 AccDes= 0.00D+00
 Harris functional with IExCor=  402 and IRadAn=       1 diagonalized for initial guess.
 HarFok:  IExCor=  402 AccDes= 0.00D+00 IRadAn=         1 IDoV= 1 UseB2=F ITyADJ=14
 ICtDFT=  3500011 ScaDFX=  1.000000  1.000000  1.000000  1.000000
 FoFCou: FMM=F IPFlag=           0 FMFlag=      100000 FMFlg1=           0
         NFxFlg=           0 DoJE=T BraDBF=F KetDBF=T FulRan=T
         wScrn=  0.000000 ICntrl=     500 IOpCl=  0 I1Cent=   200000004 NGrid=           0
         NMat0=    1 NMatS0=      1 NMatT0=    0 NMatD0=    1 NMtDS0=    0 NMtDT0=    0
 Petite list used in FoFCou.
 Harris En= -158.528346802707    
 JPrj=0 DoOrth=F DoCkMO=F.
 Leave Link  401 at Thu Mar 19 18:04:07 2026, MaxMem=   536870912 cpu:         1.0
 (Enter C:\G09W\l502.exe)
 Closed shell SCF:
 Using DIIS extrapolation, IDIIS=  1040.
 Integral symmetry usage will be decided dynamically.
 Keep R1 ints in memory in canonical form, NReq=6191884.
 IVT=       38854 IEndB=       38854 NGot=   536870912 MDV=   531581639
 LenX=   531581639 LenY=   531574798
 Requested convergence on RMS density matrix=1.00D-08 within 128 cycles.
 Requested convergence on MAX density matrix=1.00D-06.
 Requested convergence on             energy=1.00D-06.
 No special actions if energy rises.
 FoFCou: FMM=F IPFlag=           0 FMFlag=           0 FMFlg1=           0
         NFxFlg=           0 DoJE=F BraDBF=F KetDBF=F FulRan=T
         wScrn=  0.000000 ICntrl=     600 IOpCl=  0 I1Cent=           0 NGrid=           0
         NMat0=    1 NMatS0=   3240 NMatT0=    0 NMatD0=    1 NMtDS0=    0 NMtDT0=    0
 Symmetry not used in FoFCou.
 Integral accuracy reduced to 1.0D-05 until final iterations.

 Cycle   1  Pass 0  IDiag  1:
 E= -158.246916528102    
 DIIS: error= 5.36D-02 at cycle   1 NSaved=   1.
 NSaved= 1 IEnMin= 1 EnMin= -158.246916528102     IErMin= 1 ErrMin= 5.36D-02
 ErrMax= 5.36D-02  0.00D+00 EMaxC= 1.00D-01 BMatC= 1.86D-01 BMatP= 1.86D-01
 IDIUse=3 WtCom= 4.64D-01 WtEn= 5.36D-01
 Coeff-Com:  0.100D+01
 Coeff-En:   0.100D+01
 Coeff:      0.100D+01
 Gap=     0.356 Goal=   None    Shift=    0.000
 GapD=    0.356 DampG=1.000 DampE=0.500 DampFc=0.5000 IDamp=-1.
 Damping current iteration by 5.00D-01
 RMSDP=1.23D-02 MaxDP=1.43D-01              OVMax= 1.85D-01

 Cycle   2  Pass 0  IDiag  1:
 E= -158.338058131349     Delta-E=       -0.091141603247 Rises=F Damp=T
 DIIS: error= 9.55D-03 at cycle   2 NSaved=   2.
 NSaved= 2 IEnMin= 2 EnMin= -158.338058131349     IErMin= 2 ErrMin= 9.55D-03
 ErrMax= 9.55D-03  0.00D+00 EMaxC= 1.00D-01 BMatC= 7.84D-03 BMatP= 1.86D-01
 IDIUse=3 WtCom= 9.05D-01 WtEn= 9.55D-02
 Coeff-Com:  0.911D-01 0.909D+00
 Coeff-En:   0.147D+00 0.853D+00
 Coeff:      0.964D-01 0.904D+00
 Gap=     0.414 Goal=   None    Shift=    0.000
 RMSDP=1.73D-03 MaxDP=2.36D-02 DE=-9.11D-02 OVMax= 1.06D-01

 Cycle   3  Pass 0  IDiag  1:
 E= -158.455386464960     Delta-E=       -0.117328333610 Rises=F Damp=F
 DIIS: error= 2.87D-03 at cycle   3 NSaved=   3.
 NSaved= 3 IEnMin= 3 EnMin= -158.455386464960     IErMin= 3 ErrMin= 2.87D-03
 ErrMax= 2.87D-03  0.00D+00 EMaxC= 1.00D-01 BMatC= 6.34D-04 BMatP= 7.84D-03
 IDIUse=3 WtCom= 9.71D-01 WtEn= 2.87D-02
 Coeff-Com:  0.695D-02 0.173D+00 0.820D+00
 Coeff-En:   0.000D+00 0.000D+00 0.100D+01
 Coeff:      0.675D-02 0.168D+00 0.825D+00
 Gap=     0.405 Goal=   None    Shift=    0.000
 RMSDP=4.61D-04 MaxDP=4.34D-03 DE=-1.17D-01 OVMax= 7.59D-03

 Cycle   4  Pass 0  IDiag  1:
 E= -158.455868767906     Delta-E=       -0.000482302946 Rises=F Damp=F
 DIIS: error= 1.28D-03 at cycle   4 NSaved=   4.
 NSaved= 4 IEnMin= 4 EnMin= -158.455868767906     IErMin= 4 ErrMin= 1.28D-03
 ErrMax= 1.28D-03  0.00D+00 EMaxC= 1.00D-01 BMatC= 1.32D-04 BMatP= 6.34D-04
 IDIUse=3 WtCom= 9.87D-01 WtEn= 1.28D-02
 Coeff-Com:  0.199D-04 0.197D-01 0.316D+00 0.664D+00
 Coeff-En:   0.000D+00 0.000D+00 0.476D-01 0.952D+00
 Coeff:      0.197D-04 0.195D-01 0.313D+00 0.668D+00
 Gap=     0.406 Goal=   None    Shift=    0.000
 RMSDP=1.61D-04 MaxDP=2.15D-03 DE=-4.82D-04 OVMax= 3.08D-03

 Cycle   5  Pass 0  IDiag  1:
 E= -158.455982299566     Delta-E=       -0.000113531661 Rises=F Damp=F
 DIIS: error= 3.45D-04 at cycle   5 NSaved=   5.
 NSaved= 5 IEnMin= 5 EnMin= -158.455982299566     IErMin= 5 ErrMin= 3.45D-04
 ErrMax= 3.45D-04  0.00D+00 EMaxC= 1.00D-01 BMatC= 1.55D-05 BMatP= 1.32D-04
 IDIUse=3 WtCom= 9.97D-01 WtEn= 3.45D-03
 Coeff-Com: -0.720D-04-0.753D-03 0.106D+00 0.333D+00 0.562D+00
 Coeff-En:   0.000D+00 0.000D+00 0.000D+00 0.000D+00 0.100D+01
 Coeff:     -0.717D-04-0.751D-03 0.106D+00 0.332D+00 0.563D+00
 Gap=     0.406 Goal=   None    Shift=    0.000
 RMSDP=4.50D-05 MaxDP=5.97D-04 DE=-1.14D-04 OVMax= 7.95D-04

 Cycle   6  Pass 0  IDiag  1:
 E= -158.455997026403     Delta-E=       -0.000014726836 Rises=F Damp=F
 DIIS: error= 3.66D-05 at cycle   6 NSaved=   6.
 NSaved= 6 IEnMin= 6 EnMin= -158.455997026403     IErMin= 6 ErrMin= 3.66D-05
 ErrMax= 3.66D-05  0.00D+00 EMaxC= 1.00D-01 BMatC= 1.10D-07 BMatP= 1.55D-05
 IDIUse=1 WtCom= 1.00D+00 WtEn= 0.00D+00
 Coeff-Com:  0.734D-04-0.809D-03 0.232D-01 0.811D-01 0.171D+00 0.726D+00
 Coeff:      0.734D-04-0.809D-03 0.232D-01 0.811D-01 0.171D+00 0.726D+00
 Gap=     0.406 Goal=   None    Shift=    0.000
 RMSDP=6.51D-06 MaxDP=4.69D-05 DE=-1.47D-05 OVMax= 9.50D-05

 Initial convergence to 1.0D-05 achieved.  Increase integral accuracy.
 Cycle   7  Pass 1  IDiag  1:
 E= -158.456087925864     Delta-E=       -0.000090899462 Rises=F Damp=F
 DIIS: error= 9.85D-06 at cycle   1 NSaved=   1.
 NSaved= 1 IEnMin= 1 EnMin= -158.456087925864     IErMin= 1 ErrMin= 9.85D-06
 ErrMax= 9.85D-06  0.00D+00 EMaxC= 1.00D-01 BMatC= 1.27D-08 BMatP= 1.27D-08
 IDIUse=1 WtCom= 1.00D+00 WtEn= 0.00D+00
 Coeff-Com:  0.100D+01
 Coeff:      0.100D+01
 Gap=     0.406 Goal=   None    Shift=    0.000
 RMSDP=6.51D-06 MaxDP=4.69D-05 DE=-9.09D-05 OVMax= 4.74D-05

 Cycle   8  Pass 1  IDiag  1:
 E= -158.456087944176     Delta-E=       -0.000000018311 Rises=F Damp=F
 DIIS: error= 3.10D-06 at cycle   2 NSaved=   2.
 NSaved= 2 IEnMin= 2 EnMin= -158.456087944176     IErMin= 2 ErrMin= 3.10D-06
 ErrMax= 3.10D-06  0.00D+00 EMaxC= 1.00D-01 BMatC= 1.07D-09 BMatP= 1.27D-08
 IDIUse=1 WtCom= 1.00D+00 WtEn= 0.00D+00
 Coeff-Com:  0.967D-01 0.903D+00
 Coeff:      0.967D-01 0.903D+00
 Gap=     0.406 Goal=   None    Shift=    0.000
 RMSDP=7.89D-07 MaxDP=1.04D-05 DE=-1.83D-08 OVMax= 1.48D-05

 Cycle   9  Pass 1  IDiag  1:
 E= -158.456087944485     Delta-E=       -0.000000000309 Rises=F Damp=F
 DIIS: error= 3.26D-06 at cycle   3 NSaved=   3.
 NSaved= 3 IEnMin= 3 EnMin= -158.456087944485     IErMin= 2 ErrMin= 3.10D-06
 ErrMax= 3.26D-06  0.00D+00 EMaxC= 1.00D-01 BMatC= 8.29D-10 BMatP= 1.07D-09
 IDIUse=1 WtCom= 1.00D+00 WtEn= 0.00D+00
 Coeff-Com: -0.172D-01 0.470D+00 0.548D+00
 Coeff:     -0.172D-01 0.470D+00 0.548D+00
 Gap=     0.406 Goal=   None    Shift=    0.000
 RMSDP=3.48D-07 MaxDP=5.13D-06 DE=-3.09D-10 OVMax= 6.91D-06

 Cycle  10  Pass 1  IDiag  1:
 E= -158.456087945314     Delta-E=       -0.000000000829 Rises=F Damp=F
 DIIS: error= 2.84D-07 at cycle   4 NSaved=   4.
 NSaved= 4 IEnMin= 4 EnMin= -158.456087945314     IErMin= 4 ErrMin= 2.84D-07
 ErrMax= 2.84D-07  0.00D+00 EMaxC= 1.00D-01 BMatC= 9.97D-12 BMatP= 8.29D-10
 IDIUse=1 WtCom= 1.00D+00 WtEn= 0.00D+00
 Coeff-Com: -0.101D-01 0.137D+00 0.194D+00 0.679D+00
 Coeff:     -0.101D-01 0.137D+00 0.194D+00 0.679D+00
 Gap=     0.406 Goal=   None    Shift=    0.000
 RMSDP=4.74D-08 MaxDP=5.12D-07 DE=-8.29D-10 OVMax= 8.83D-07

 Cycle  11  Pass 1  IDiag  1:
 E= -158.456087945328     Delta-E=       -0.000000000014 Rises=F Damp=F
 DIIS: error= 3.13D-08 at cycle   5 NSaved=   5.
 NSaved= 5 IEnMin= 5 EnMin= -158.456087945328     IErMin= 5 ErrMin= 3.13D-08
 ErrMax= 3.13D-08  0.00D+00 EMaxC= 1.00D-01 BMatC= 1.20D-13 BMatP= 9.97D-12
 IDIUse=1 WtCom= 1.00D+00 WtEn= 0.00D+00
 Coeff-Com: -0.932D-03 0.558D-02 0.116D-01 0.112D+00 0.872D+00
 Coeff:     -0.932D-03 0.558D-02 0.116D-01 0.112D+00 0.872D+00
 Gap=     0.406 Goal=   None    Shift=    0.000
 RMSDP=7.53D-09 MaxDP=6.74D-08 DE=-1.42D-11 OVMax= 1.26D-07

 SCF Done:  E(RB3LYP) =  -158.456087945     A.U. after   11 cycles
            NFock= 11  Conv=0.75D-08     -V/T= 2.0100
 KE= 1.568907019281D+02 PE=-6.312205986835D+02 EE= 1.829819791741D+02
 Leave Link  502 at Thu Mar 19 18:04:12 2026, MaxMem=   536870912 cpu:         5.0
 (Enter C:\G09W\l601.exe)
 Copying SCF densities to generalized density rwf, IOpCl= 0 IROHF=0.

 **********************************************************************

            Population analysis using the SCF density.

 **********************************************************************

 Orbital symmetries:
       Occupied  (A) (A) (A) (A) (A) (A) (A) (A) (A) (A) (A) (A)
                 (A) (A) (A) (A) (A)
       Virtual   (A) (A) (A) (A) (A) (A) (A) (A) (A) (A) (A) (A)
                 (A) (A) (A) (A) (A) (A) (A) (A) (A) (A) (A) (A)
                 (A) (A) (A) (A) (A) (A) (A) (A) (A) (A) (A) (A)
                 (A) (A) (A) (A) (A) (A) (A) (A) (A) (A) (A) (A)
                 (A) (A) (A) (A) (A) (A) (A) (A) (A) (A) (A) (A)
                 (A) (A) (A)
 The electronic state is 1-A.
 Alpha  occ. eigenvalues --  -10.17345 -10.17323 -10.16755 -10.16755  -0.79113
 Alpha  occ. eigenvalues --   -0.71633  -0.63488  -0.56143  -0.45407  -0.45079
 Alpha  occ. eigenvalues --   -0.41460  -0.37857  -0.37793  -0.35617  -0.32286
 Alpha  occ. eigenvalues --   -0.31691  -0.31559
 Alpha virt. eigenvalues --    0.09048   0.13302   0.13722   0.14871   0.16480
 Alpha virt. eigenvalues --    0.17257   0.18333   0.18735   0.20702   0.21614
 Alpha virt. eigenvalues --    0.24182   0.24928   0.28630   0.50561   0.52770
 Alpha virt. eigenvalues --    0.52829   0.54005   0.56685   0.62630   0.65778
 Alpha virt. eigenvalues --    0.66944   0.69551   0.73425   0.83509   0.85246
 Alpha virt. eigenvalues --    0.87346   0.88388   0.89456   0.90005   0.91920
 Alpha virt. eigenvalues --    0.95370   0.97138   0.97690   1.00949   1.01698
 Alpha virt. eigenvalues --    1.02853   1.28663   1.44356   1.44827   1.57230
 Alpha virt. eigenvalues --    1.61243   1.68958   1.72481   1.86932   1.94224
 Alpha virt. eigenvalues --    1.98392   1.99004   2.01414   2.12520   2.12925
 Alpha virt. eigenvalues --    2.29083   2.29171   2.30652   2.35058   2.40506
 Alpha virt. eigenvalues --    2.44725   2.61589   2.61646   2.72345   4.13320
 Alpha virt. eigenvalues --    4.24836   4.38983   4.50559
          Condensed to atoms (all electrons):
               1          2          3          4          5          6
     1  C    5.065521   0.380952  -0.050644  -0.004432   0.379607   0.378005
     2  C    0.380952   4.948658   0.393510  -0.050644  -0.035412  -0.037360
     3  C   -0.050644   0.393510   4.948658   0.380952  -0.005359  -0.004622
     4  C   -0.004432  -0.050644   0.380952   5.065521   0.003486  -0.000674
     5  H    0.379607  -0.035412  -0.005359   0.003486   0.573483  -0.032228
     6  H    0.378005  -0.037360  -0.004622  -0.000674  -0.032228   0.579669
     7  H    0.373682  -0.030238   0.004940   0.000078  -0.031131  -0.030880
     8  H   -0.041649   0.376718  -0.038987  -0.006939  -0.005120   0.005603
     9  H   -0.041032   0.376365  -0.036464   0.005542   0.005523  -0.003967
    10  H   -0.006939  -0.038987   0.376718  -0.041649  -0.000157   0.005938
    11  H    0.005542  -0.036464   0.376365  -0.041032  -0.000034   0.000028
    12  H    0.000078   0.004940  -0.030238   0.373683  -0.000105  -0.000026
    13  H    0.003486  -0.005359  -0.035412   0.379607   0.001702   0.000380
    14  H   -0.000674  -0.004622  -0.037360   0.378005   0.000380   0.000101
               7          8          9         10         11         12
     1  C    0.373682  -0.041649  -0.041032  -0.006939   0.005542   0.000078
     2  C   -0.030238   0.376718   0.376365  -0.038987  -0.036464   0.004940
     3  C    0.004940  -0.038987  -0.036464   0.376718   0.376365  -0.030238
     4  C    0.000078  -0.006939   0.005542  -0.041649  -0.041032   0.373683
     5  H   -0.031131  -0.005120   0.005523  -0.000157  -0.000034  -0.000105
     6  H   -0.030880   0.005603  -0.003967   0.005938   0.000028  -0.000026
     7  H    0.580058  -0.002334  -0.004273  -0.000008  -0.000187   0.000000
     8  H   -0.002334   0.612660  -0.037539   0.005983  -0.003070  -0.000008
     9  H   -0.004273  -0.037539   0.614228  -0.003070  -0.003954  -0.000187
    10  H   -0.000008   0.005983  -0.003070   0.612659  -0.037539  -0.002334
    11  H   -0.000187  -0.003070  -0.003954  -0.037539   0.614228  -0.004273
    12  H    0.000000  -0.000008  -0.000187  -0.002334  -0.004273   0.580058
    13  H   -0.000105  -0.000157  -0.000034  -0.005120   0.005523  -0.031131
    14  H   -0.000026   0.005938   0.000028   0.005603  -0.003967  -0.030880
              13         14
     1  C    0.003486  -0.000674
     2  C   -0.005359  -0.004622
     3  C   -0.035412  -0.037360
     4  C    0.379607   0.378005
     5  H    0.001702   0.000380
     6  H    0.000380   0.000101
     7  H   -0.000105  -0.000026
     8  H   -0.000157   0.005938
     9  H   -0.000034   0.000028
    10  H   -0.005120   0.005603
    11  H    0.005523  -0.003967
    12  H   -0.031131  -0.030880
    13  H    0.573484  -0.032228
    14  H   -0.032228   0.579668
 Mulliken charges:
               1
     1  C   -0.441503
     2  C   -0.242056
     3  C   -0.242056
     4  C   -0.441503
     5  H    0.145366
     6  H    0.140034
     7  H    0.140425
     8  H    0.128901
     9  H    0.128834
    10  H    0.128901
    11  H    0.128834
    12  H    0.140425
    13  H    0.145366
    14  H    0.140034
 Sum of Mulliken charges =   0.00000
 Mulliken charges with hydrogens summed into heavy atoms:
               1
     1  C   -0.015678
     2  C    0.015678
     3  C    0.015678
     4  C   -0.015678
 Electronic spatial extent (au):  <R**2>=            376.9593
 Charge=              0.0000 electrons
 Dipole moment (field-independent basis, Debye):
    X=              0.0000    Y=              0.0652    Z=              0.0000  Tot=              0.0652
 Quadrupole moment (field-independent basis, Debye-Ang):
   XX=            -28.4557   YY=            -28.3816   ZZ=            -27.8537
   XY=              0.0000   XZ=             -0.0524   YZ=              0.0000
 Traceless Quadrupole moment (field-independent basis, Debye-Ang):
   XX=             -0.2254   YY=             -0.1512   ZZ=              0.3766
   XY=              0.0000   XZ=             -0.0524   YZ=              0.0000
 Octapole moment (field-independent basis, Debye-Ang**2):
  XXX=              0.0000  YYY=              0.2142  ZZZ=              0.0000  XYY=              0.0000
  XXY=              1.3424  XXZ=              0.0000  XZZ=              0.0000  YZZ=             -0.0434
  YYZ=              0.0000  XYZ=              0.4098
 Hexadecapole moment (field-independent basis, Debye-Ang**3):
 XXXX=           -322.2867 YYYY=           -122.8559 ZZZZ=            -66.0251 XXXY=              0.0000
 XXXZ=             -3.5644 YYYX=              0.0000 YYYZ=              0.0000 ZZZX=              1.3171
 ZZZY=              0.0000 XXYY=            -77.2582 XXZZ=            -65.8198 YYZZ=            -33.1763
 XXYZ=              0.0000 YYXZ=              0.1099 ZZXY=              0.0000
 N-N= 1.328918296358D+02 E-N=-6.312206020796D+02  KE= 1.568907019281D+02
 No NMR shielding tensors so no spin-rotation constants.
 Leave Link  601 at Thu Mar 19 18:04:13 2026, MaxMem=   536870912 cpu:         1.0
 (Enter C:\G09W\l701.exe)
 Compute integral first derivatives.
 ... and contract with generalized density number  0.
 Leave Link  701 at Thu Mar 19 18:04:13 2026, MaxMem=   536870912 cpu:         0.0
 (Enter C:\G09W\l702.exe)
 L702 exits ... SP integral derivatives will be done elsewhere.
 Leave Link  702 at Thu Mar 19 18:04:13 2026, MaxMem=   536870912 cpu:         0.0
 (Enter C:\G09W\l703.exe)
 Compute integral first derivatives, UseDBF=F ICtDFT=           0.
 Integral derivatives from FoFJK, PRISM(SPDF).
 Calling FoFJK, ICntrl=      2127 FMM=F ISym2X=0 I1Cent= 0 IOpClX= 0 NMat=1 NMatS=1 NMatT=0.
 FoFJK:  IHMeth= 1 ICntrl=    2127 DoSepK=F KAlg= 0 I1Cent=   0 FoldK=F
 IRaf=         0 NMat=   1 IRICut=       1 DoRegI=T DoRafI=F ISym2E= 0.
 FoFCou: FMM=F IPFlag=           0 FMFlag=      100000 FMFlg1=         800
         NFxFlg=           0 DoJE=F BraDBF=F KetDBF=F FulRan=T
         wScrn=  0.000000 ICntrl=    2127 IOpCl=  0 I1Cent=           0 NGrid=           0
         NMat0=    1 NMatS0=      1 NMatT0=    0 NMatD0=    1 NMtDS0=    0 NMtDT0=    0
 Symmetry not used in FoFCou.
 Leave Link  703 at Thu Mar 19 18:04:15 2026, MaxMem=   536870912 cpu:         2.0
 (Enter C:\G09W\l716.exe)
 Dipole        =-2.46468584D-07 2.56462063D-02-5.11485014D-08
 ***** Axes restored to original set *****
 -------------------------------------------------------------------
 Center     Atomic                   Forces (Hartrees/Bohr)
 Number     Number              X              Y              Z
 -------------------------------------------------------------------
      1        6          -0.003709817    0.003330031   -0.002044782
      2        6          -0.001671107   -0.005302232    0.001161737
      3        6           0.002163913   -0.000575199   -0.005219514
      4        6           0.003457292   -0.000324500    0.004120068
      5        1          -0.000795994    0.000937376    0.001647790
      6        1          -0.000817976    0.000016369    0.001707932
      7        1          -0.001872649    0.001301948    0.001112423
      8        1           0.001413886    0.000062123   -0.001769088
      9        1          -0.000311018   -0.000758493   -0.002160978
     10        1          -0.001269534   -0.001784775    0.000580424
     11        1           0.000562611   -0.002240160    0.000090959
     12        1           0.001621187    0.001699910    0.000960039
     13        1           0.000553993    0.001949681    0.000345082
     14        1           0.000675213    0.001687919   -0.000532092
 -------------------------------------------------------------------
 Cartesian Forces:  Max     0.005302232 RMS     0.002023896
 Leave Link  716 at Thu Mar 19 18:04:15 2026, MaxMem=   536870912 cpu:         0.0
 (Enter C:\G09W\l103.exe)

 GradGradGradGradGradGradGradGradGradGradGradGradGradGradGradGradGradGrad
 Berny optimization.
 FormGI is forming the generalized inverse of G from B-inverse, IUseBI=4.
 Internal  Forces:  Max     0.008994114 RMS     0.002218269
 Search for a local minimum.
 Step number   1 out of a maximum of   74
 All quantities printed in internal units (Hartrees-Bohrs-Radians)
 RMS Force = .22183D-02 SwitMx=.10000D-02 MixMth= 1
 Mixed Optimization -- RFO/linear search
 Second derivative matrix not updated -- first step.
 ITU=  0
     Eigenvalues ---    0.00383   0.00489   0.00489   0.03521   0.03521
     Eigenvalues ---    0.04883   0.04883   0.05542   0.05542   0.05715
     Eigenvalues ---    0.05715   0.08492   0.08492   0.12314   0.12314
     Eigenvalues ---    0.16000   0.16000   0.16000   0.16000   0.16000
     Eigenvalues ---    0.16000   0.21937   0.21937   0.29521   0.30278
     Eigenvalues ---    0.30278   0.34068   0.34068   0.34102   0.34102
     Eigenvalues ---    0.34266   0.34266   0.34291   0.34291   0.34363
     Eigenvalues ---    0.34363
 RFO step:  Lambda=-1.47276930D-03 EMin= 3.82983405D-03
 Linear search not attempted -- first point.
 Iteration  1 RMS(Cart)=  0.02771530 RMS(Int)=  0.00015368
 Iteration  2 RMS(Cart)=  0.00025924 RMS(Int)=  0.00009193
 Iteration  3 RMS(Cart)=  0.00000005 RMS(Int)=  0.00009193
 ITry= 1 IFail=0 DXMaxC= 8.39D-02 DCOld= 1.00D+10 DXMaxT= 3.00D-01 DXLimC= 3.00D+00 Rises=F
 Variable       Old X    -DE/DX   Delta X   Delta X   Delta X     New X
                                 (Linear)    (Quad)   (Total)
    R1        2.87412   0.00899   0.00000   0.02956   0.02956   2.90368
    R2        2.06721   0.00104   0.00000   0.00302   0.00302   2.07023
    R3        2.06842   0.00160   0.00000   0.00464   0.00464   2.07307
    R4        2.06883   0.00115   0.00000   0.00333   0.00333   2.07216
    R5        2.88930   0.00618   0.00000   0.02083   0.02083   2.91013
    R6        2.07158   0.00184   0.00000   0.00536   0.00536   2.07694
    R7        2.07216   0.00158   0.00000   0.00462   0.00462   2.07678
    R8        2.87412   0.00899   0.00000   0.02956   0.02956   2.90368
    R9        2.07158   0.00184   0.00000   0.00536   0.00536   2.07694
   R10        2.07216   0.00158   0.00000   0.00462   0.00462   2.07678
   R11        2.06883   0.00115   0.00000   0.00333   0.00333   2.07216
   R12        2.06721   0.00104   0.00000   0.00302   0.00302   2.07023
   R13        2.06842   0.00160   0.00000   0.00464   0.00464   2.07307
    A1        1.94615   0.00156   0.00000   0.00912   0.00904   1.95519
    A2        1.93808   0.00032   0.00000  -0.00026  -0.00026   1.93782
    A3        1.92084   0.00290   0.00000   0.02074   0.02063   1.94147
    A4        1.89321  -0.00159   0.00000  -0.01496  -0.01494   1.87826
    A5        1.87822  -0.00184   0.00000  -0.00718  -0.00736   1.87086
    A6        1.88526  -0.00156   0.00000  -0.00866  -0.00868   1.87657
    A7        1.98019   0.00375   0.00000   0.02104   0.02093   2.00112
    A8        1.90952  -0.00034   0.00000  -0.00074  -0.00060   1.90893
    A9        1.89445  -0.00082   0.00000   0.00579   0.00556   1.90001
   A10        1.91820  -0.00225   0.00000  -0.01894  -0.01892   1.89927
   A11        1.89366  -0.00049   0.00000   0.00538   0.00511   1.89876
   A12        1.86404  -0.00004   0.00000  -0.01428  -0.01429   1.84974
   A13        1.98019   0.00375   0.00000   0.02104   0.02093   2.00112
   A14        1.91819  -0.00225   0.00000  -0.01894  -0.01892   1.89927
   A15        1.89366  -0.00049   0.00000   0.00538   0.00511   1.89876
   A16        1.90952  -0.00034   0.00000  -0.00074  -0.00060   1.90893
   A17        1.89445  -0.00082   0.00000   0.00579   0.00556   1.90001
   A18        1.86404  -0.00004   0.00000  -0.01428  -0.01429   1.84974
   A19        1.92084   0.00290   0.00000   0.02074   0.02063   1.94147
   A20        1.94615   0.00156   0.00000   0.00912   0.00904   1.95519
   A21        1.93808   0.00032   0.00000  -0.00026  -0.00026   1.93782
   A22        1.87822  -0.00184   0.00000  -0.00718  -0.00736   1.87086
   A23        1.88526  -0.00156   0.00000  -0.00866  -0.00868   1.87657
   A24        1.89321  -0.00159   0.00000  -0.01496  -0.01494   1.87826
    D1        1.14681  -0.00111   0.00000  -0.03142  -0.03151   1.11530
    D2       -1.00199  -0.00058   0.00000  -0.02111  -0.02118  -1.02317
    D3       -3.02998   0.00012   0.00000  -0.00690  -0.00689  -3.03687
    D4       -0.96675  -0.00037   0.00000  -0.01843  -0.01845  -0.98519
    D5       -3.11554   0.00016   0.00000  -0.00811  -0.00812  -3.12366
    D6        1.13965   0.00085   0.00000   0.00610   0.00617   1.14582
    D7       -3.05338  -0.00051   0.00000  -0.02093  -0.02093  -3.07431
    D8        1.08101   0.00003   0.00000  -0.01062  -0.01060   1.07041
    D9       -0.94698   0.00072   0.00000   0.00359   0.00369  -0.94330
   D10       -1.13965   0.00031   0.00000   0.01187   0.01202  -1.12762
   D11        1.00438   0.00085   0.00000   0.01166   0.01168   1.01606
   D12        3.03670  -0.00073   0.00000  -0.01288  -0.01282   3.02388
   D13        1.00438   0.00085   0.00000   0.01166   0.01168   1.01606
   D14       -3.13479   0.00138   0.00000   0.01145   0.01134  -3.12345
   D15       -1.10247  -0.00019   0.00000  -0.01308  -0.01316  -1.11563
   D16        3.03670  -0.00073   0.00000  -0.01288  -0.01282   3.02388
   D17       -1.10247  -0.00019   0.00000  -0.01308  -0.01316  -1.11563
   D18        0.92985  -0.00177   0.00000  -0.03762  -0.03766   0.89219
   D19       -3.05339  -0.00051   0.00000  -0.02093  -0.02092  -3.07431
   D20        1.14681  -0.00111   0.00000  -0.03142  -0.03150   1.11530
   D21       -0.96675  -0.00037   0.00000  -0.01843  -0.01844  -0.98520
   D22        1.08100   0.00003   0.00000  -0.01061  -0.01060   1.07040
   D23       -1.00199  -0.00058   0.00000  -0.02111  -0.02118  -1.02317
   D24       -3.11555   0.00016   0.00000  -0.00811  -0.00812  -3.12367
   D25       -0.94699   0.00072   0.00000   0.00360   0.00369  -0.94330
   D26       -3.02998   0.00012   0.00000  -0.00689  -0.00689  -3.03687
   D27        1.13965   0.00085   0.00000   0.00610   0.00617   1.14581
         Item               Value     Threshold  Converged?
 Maximum Force            0.008994     0.000450     NO 
 RMS     Force            0.002218     0.000300     NO 
 Maximum Displacement     0.083874     0.001800     NO 
 RMS     Displacement     0.027806     0.001200     NO 
 Predicted change in Energy=-7.491075D-04
 Lowest energy point so far.  Saving SCF results.
 GradGradGradGradGradGradGradGradGradGradGradGradGradGradGradGradGradGrad

 Leave Link  103 at Thu Mar 19 18:04:15 2026, MaxMem=   536870912 cpu:         0.0
 (Enter C:\G09W\l202.exe)
                          Input orientation:                          
 ---------------------------------------------------------------------
 Center     Atomic      Atomic             Coordinates (Angstroms)
 Number     Number       Type             X           Y           Z
 ---------------------------------------------------------------------
      1          6           0       -1.607739    0.472447    0.021154
      2          6           0       -0.568004   -0.322000   -0.784340
      3          6           0        0.660215   -0.777809    0.025128
      4          6           0        1.537451    0.365870    0.557548
      5          1           0       -1.203990    1.421876    0.389570
      6          1           0       -1.954102   -0.100560    0.890147
      7          1           0       -2.486965    0.709409   -0.589752
      8          1           0       -0.226706    0.283053   -1.636032
      9          1           0       -1.054748   -1.206953   -1.217586
     10          1           0        0.320217   -1.398360    0.866120
     11          1           0        1.276178   -1.434035   -0.605523
     12          1           0        2.429226   -0.020782    1.065124
     13          1           0        1.001468    0.993593    1.277857
     14          1           0        1.877498    1.014249   -0.259414
 ---------------------------------------------------------------------
                    Distance matrix (angstroms):
                    1          2          3          4          5
     1  C    0.000000
     2  C    1.536559   0.000000
     3  C    2.589743   1.539975   0.000000
     4  C    3.192381   2.589743   1.536559   0.000000
     5  H    1.095518   2.196281   2.906320   2.942595   0.000000
     6  H    1.097020   2.184997   2.835768   3.538238   1.769479
     7  H    1.096538   2.187254   3.534775   4.198838   1.764286
     8  H    2.165499   1.099069   2.161367   2.816185   2.520926
     9  H    2.158856   1.098983   2.160926   3.513456   3.084796
    10  H    2.816185   2.161367   1.099069   2.165499   3.240994
    11  H    3.513456   2.160926   1.098983   2.158856   3.911224
    12  H    4.198837   3.534775   2.187254   1.096538   3.967102
    13  H    2.942594   2.906318   2.196280   1.095518   2.415890
    14  H    3.538240   2.835769   2.184997   1.097020   3.175360
                    6          7          8          9         10
     6  H    0.000000
     7  H    1.769207   0.000000
     8  H    3.084256   2.526905   0.000000
     9  H    2.544696   2.473431   1.755240   0.000000
    10  H    2.618662   3.800332   3.063827   2.503796   0.000000
    11  H    3.801302   4.330802   2.503797   2.420620   1.755241
    12  H    4.387545   5.238390   3.800333   4.330802   2.526904
    13  H    3.175356   3.967101   3.240992   3.911223   2.520927
    14  H    4.152764   4.387549   2.618663   3.801302   3.084256
                   11         12         13         14
    11  H    0.000000
    12  H    2.473432   0.000000
    13  H    3.084796   1.764286   0.000000
    14  H    2.544695   1.769207   1.769479   0.000000
 Stoichiometry    C4H10
 Framework group  C1[X(C4H10)]
 Deg. of freedom    36
 Full point group                 C1      NOp   1
 RotChk:  IX=0 Diff= 5.66D-03
 Largest Abelian subgroup         C1      NOp   1
 Largest concise Abelian subgroup C1      NOp   1
                         Standard orientation:                         
 ---------------------------------------------------------------------
 Center     Atomic      Atomic             Coordinates (Angstroms)
 Number     Number       Type             X           Y           Z
 ---------------------------------------------------------------------
      1          6           0        1.591446   -0.557380    0.122985
      2          6           0        0.706359    0.622954   -0.306491
      3          6           0       -0.706360    0.622954    0.306491
      4          6           0       -1.591445   -0.557380   -0.122985
      5          1           0        1.188409   -1.517877   -0.216376
      6          1           0        1.683672   -0.603283    1.215158
      7          1           0        2.603072   -0.466217   -0.290169
      8          1           0        0.617549    0.632393   -1.401925
      9          1           0        1.209786    1.561544   -0.035616
     10          1           0       -0.617549    0.632392    1.401925
     11          1           0       -1.209786    1.561544    0.035615
     12          1           0       -2.603071   -0.466219    0.290171
     13          1           0       -1.188407   -1.517877    0.216374
     14          1           0       -1.683674   -0.603282   -1.215158
 ---------------------------------------------------------------------
 Rotational constants (GHZ):     13.2584707      4.6570636      3.9795621
 Leave Link  202 at Thu Mar 19 18:04:15 2026, MaxMem=   536870912 cpu:         0.0
 (Enter C:\G09W\l301.exe)
 Standard basis: 6-31G(d) (6D, 7F)
 Ernie: Thresh=  0.10000D-02 Tol=  0.10000D-05 Strict=F.
 There are    80 symmetry adapted cartesian basis functions of A   symmetry.
 There are    80 symmetry adapted basis functions of A   symmetry.
    80 basis functions,   152 primitive gaussians,    80 cartesian basis functions
    17 alpha electrons       17 beta electrons
       nuclear repulsion energy       131.6508798958 Hartrees.
 IExCor=  402 DFT=T Ex+Corr=B3LYP ExCW=0 ScaHFX=  0.200000
 ScaDFX=  0.800000  0.720000  1.000000  0.810000 ScalE2=  1.000000  1.000000
 IRadAn=      0 IRanWt=     -1 IRanGd=            0 ICorTp=0 IEmpDi=  4
 NAtoms=   14 NActive=   14 NUniq=   14 SFac= 1.00D+00 NAtFMM=   60 NAOKFM=F Big=F
 Integral buffers will be    131072 words long.
 Raffenetti 2 integral format.
 Two-electron integral symmetry is turned on.
 Leave Link  301 at Thu Mar 19 18:04:15 2026, MaxMem=   536870912 cpu:         0.0
 (Enter C:\G09W\l302.exe)
 NPDir=0 NMtPBC=     1 NCelOv=     1 NCel=       1 NClECP=     1 NCelD=      1
         NCelK=      1 NCelE2=     1 NClLst=     1 CellRange=     0.0.
 One-electron integrals computed using PRISM.
 NBasis=    80 RedAO= T EigKep=  5.62D-03  NBF=    80
 NBsUse=    80 1.00D-06 EigRej= -1.00D+00 NBFU=    80
 Precomputing XC quadrature grid using
 IXCGrd= 4 IRadAn=           0 IRanWt=          -1 IRanGd=           0 AccXCQ= 0.00D+00.
 Generated NRdTot=       0 NPtTot=           0 NUsed=           0 NTot=          32
 NSgBfM=    80    80    80    80    80 MxSgAt=    14 MxSgA2=    14.
 Leave Link  302 at Thu Mar 19 18:04:16 2026, MaxMem=   536870912 cpu:         0.0
 (Enter C:\G09W\l303.exe)
 DipDrv:  MaxL=1.
 Leave Link  303 at Thu Mar 19 18:04:16 2026, MaxMem=   536870912 cpu:         0.0
 (Enter C:\G09W\l401.exe)
 Initial guess from the checkpoint file:  "butane_rdkit.chk"
 B after Tr=     0.000000    0.000000    0.000000
         Rot=    0.999999    0.000000   -0.001522    0.000000 Ang=   0.17 deg.
 Guess basis will be translated and rotated to current coordinates.
 JPrj=2 DoOrth=T DoCkMO=T.
 Generating alternative initial guess.
 ExpMin= 1.61D-01 ExpMax= 3.05D+03 ExpMxC= 4.57D+02 IAcc=1 IRadAn=         1 AccDes= 0.00D+00
 Harris functional with IExCor=  402 and IRadAn=       1 diagonalized for initial guess.
 HarFok:  IExCor=  402 AccDes= 0.00D+00 IRadAn=         1 IDoV= 1 UseB2=F ITyADJ=14
 ICtDFT=  3500011 ScaDFX=  1.000000  1.000000  1.000000  1.000000
 FoFCou: FMM=F IPFlag=           0 FMFlag=      100000 FMFlg1=           0
         NFxFlg=           0 DoJE=T BraDBF=F KetDBF=T FulRan=T
         wScrn=  0.000000 ICntrl=     500 IOpCl=  0 I1Cent=   200000004 NGrid=           0
         NMat0=    1 NMatS0=      1 NMatT0=    0 NMatD0=    1 NMtDS0=    0 NMtDT0=    0
 Petite list used in FoFCou.
 Harris En= -158.524934068800    
 Leave Link  401 at Thu Mar 19 18:04:16 2026, MaxMem=   536870912 cpu:         0.0
 (Enter C:\G09W\l502.exe)
 Closed shell SCF:
 Using DIIS extrapolation, IDIIS=  1040.
 Integral symmetry usage will be decided dynamically.
 Keep R1 ints in memory in canonical form, NReq=6191884.
 IVT=       38854 IEndB=       38854 NGot=   536870912 MDV=   531581639
 LenX=   531581639 LenY=   531574798
 Requested convergence on RMS density matrix=1.00D-08 within 128 cycles.
 Requested convergence on MAX density matrix=1.00D-06.
 Requested convergence on             energy=1.00D-06.
 No special actions if energy rises.
 FoFCou: FMM=F IPFlag=           0 FMFlag=           0 FMFlg1=           0
         NFxFlg=           0 DoJE=F BraDBF=F KetDBF=F FulRan=T
         wScrn=  0.000000 ICntrl=     600 IOpCl=  0 I1Cent=           0 NGrid=           0
         NMat0=    1 NMatS0=   3240 NMatT0=    0 NMatD0=    1 NMtDS0=    0 NMtDT0=    0
 Symmetry not used in FoFCou.
 Integral accuracy reduced to 1.0D-05 until final iterations.

 Cycle   1  Pass 0  IDiag  1:
 E= -158.456314910121    
 DIIS: error= 1.34D-03 at cycle   1 NSaved=   1.
 NSaved= 1 IEnMin= 1 EnMin= -158.456314910121     IErMin= 1 ErrMin= 1.34D-03
 ErrMax= 1.34D-03  0.00D+00 EMaxC= 1.00D-01 BMatC= 1.75D-04 BMatP= 1.75D-04
 IDIUse=3 WtCom= 9.87D-01 WtEn= 1.34D-02
 Coeff-Com:  0.100D+01
 Coeff-En:   0.100D+01
 Coeff:      0.100D+01
 Gap=     1.900 Goal=   None    Shift=    0.000
 GapD=    1.900 DampG=2.000 DampE=1.000 DampFc=2.0000 IDamp=-1.
 RMSDP=2.36D-04 MaxDP=1.65D-03              OVMax= 4.28D-03

 Cycle   2  Pass 0  IDiag  1:
 E= -158.456556270643     Delta-E=       -0.000241360522 Rises=F Damp=F
 DIIS: error= 4.07D-04 at cycle   2 NSaved=   2.
 NSaved= 2 IEnMin= 2 EnMin= -158.456556270643     IErMin= 2 ErrMin= 4.07D-04
 ErrMax= 4.07D-04  0.00D+00 EMaxC= 1.00D-01 BMatC= 2.21D-05 BMatP= 1.75D-04
 IDIUse=3 WtCom= 9.96D-01 WtEn= 4.07D-03
 Coeff-Com:  0.166D+00 0.834D+00
 Coeff-En:   0.000D+00 0.100D+01
 Coeff:      0.166D+00 0.834D+00
 Gap=     0.408 Goal=   None    Shift=    0.000
 RMSDP=1.03D-04 MaxDP=1.17D-03 DE=-2.41D-04 OVMax= 1.82D-03

 Cycle   3  Pass 0  IDiag  1:
 E= -158.456564206423     Delta-E=       -0.000007935780 Rises=F Damp=F
 DIIS: error= 3.69D-04 at cycle   3 NSaved=   3.
 NSaved= 3 IEnMin= 3 EnMin= -158.456564206423     IErMin= 3 ErrMin= 3.69D-04
 ErrMax= 3.69D-04  0.00D+00 EMaxC= 1.00D-01 BMatC= 1.48D-05 BMatP= 2.21D-05
 IDIUse=3 WtCom= 9.96D-01 WtEn= 3.69D-03
 Coeff-Com: -0.171D-01 0.448D+00 0.569D+00
 Coeff-En:   0.000D+00 0.400D+00 0.600D+00
 Coeff:     -0.170D-01 0.448D+00 0.569D+00
 Gap=     0.407 Goal=   None    Shift=    0.000
 RMSDP=4.89D-05 MaxDP=5.68D-04 DE=-7.94D-06 OVMax= 7.65D-04

 Cycle   4  Pass 0  IDiag  1:
 E= -158.456579576893     Delta-E=       -0.000015370471 Rises=F Damp=F
 DIIS: error= 2.58D-05 at cycle   4 NSaved=   4.
 NSaved= 4 IEnMin= 4 EnMin= -158.456579576893     IErMin= 4 ErrMin= 2.58D-05
 ErrMax= 2.58D-05  0.00D+00 EMaxC= 1.00D-01 BMatC= 8.67D-08 BMatP= 1.48D-05
 IDIUse=1 WtCom= 1.00D+00 WtEn= 0.00D+00
 Coeff-Com: -0.956D-02 0.102D+00 0.163D+00 0.745D+00
 Coeff:     -0.956D-02 0.102D+00 0.163D+00 0.745D+00
 Gap=     0.408 Goal=   None    Shift=    0.000
 RMSDP=4.27D-06 MaxDP=4.15D-05 DE=-1.54D-05 OVMax= 6.26D-05

 Initial convergence to 1.0D-05 achieved.  Increase integral accuracy.
 Cycle   5  Pass 1  IDiag  1:
 E= -158.456660137190     Delta-E=       -0.000080560297 Rises=F Damp=F
 DIIS: error= 1.00D-05 at cycle   1 NSaved=   1.
 NSaved= 1 IEnMin= 1 EnMin= -158.456660137190     IErMin= 1 ErrMin= 1.00D-05
 ErrMax= 1.00D-05  0.00D+00 EMaxC= 1.00D-01 BMatC= 1.47D-08 BMatP= 1.47D-08
 IDIUse=1 WtCom= 1.00D+00 WtEn= 0.00D+00
 Coeff-Com:  0.100D+01
 Coeff:      0.100D+01
 Gap=     0.408 Goal=   None    Shift=    0.000
 RMSDP=4.27D-06 MaxDP=4.15D-05 DE=-8.06D-05 OVMax= 4.49D-05

 Cycle   6  Pass 1  IDiag  1:
 E= -158.456660152553     Delta-E=       -0.000000015363 Rises=F Damp=F
 DIIS: error= 6.29D-06 at cycle   2 NSaved=   2.
 NSaved= 2 IEnMin= 2 EnMin= -158.456660152553     IErMin= 2 ErrMin= 6.29D-06
 ErrMax= 6.29D-06  0.00D+00 EMaxC= 1.00D-01 BMatC= 5.92D-09 BMatP= 1.47D-08
 IDIUse=1 WtCom= 1.00D+00 WtEn= 0.00D+00
 Coeff-Com:  0.346D+00 0.654D+00
 Coeff:      0.346D+00 0.654D+00
 Gap=     0.408 Goal=   None    Shift=    0.000
 RMSDP=1.11D-06 MaxDP=1.68D-05 DE=-1.54D-08 OVMax= 2.22D-05

 Cycle   7  Pass 1  IDiag  1:
 E= -158.456660157030     Delta-E=       -0.000000004476 Rises=F Damp=F
 DIIS: error= 2.83D-06 at cycle   3 NSaved=   3.
 NSaved= 3 IEnMin= 3 EnMin= -158.456660157030     IErMin= 3 ErrMin= 2.83D-06
 ErrMax= 2.83D-06  0.00D+00 EMaxC= 1.00D-01 BMatC= 1.24D-09 BMatP= 5.92D-09
 IDIUse=1 WtCom= 1.00D+00 WtEn= 0.00D+00
 Coeff-Com: -0.271D-01 0.307D+00 0.720D+00
 Coeff:     -0.271D-01 0.307D+00 0.720D+00
 Gap=     0.408 Goal=   None    Shift=    0.000
 RMSDP=4.03D-07 MaxDP=5.13D-06 DE=-4.48D-09 OVMax= 7.69D-06

 Cycle   8  Pass 1  IDiag  1:
 E= -158.456660158239     Delta-E=       -0.000000001209 Rises=F Damp=F
 DIIS: error= 1.78D-07 at cycle   4 NSaved=   4.
 NSaved= 4 IEnMin= 4 EnMin= -158.456660158239     IErMin= 4 ErrMin= 1.78D-07
 ErrMax= 1.78D-07  0.00D+00 EMaxC= 1.00D-01 BMatC= 3.14D-12 BMatP= 1.24D-09
 IDIUse=1 WtCom= 1.00D+00 WtEn= 0.00D+00
 Coeff-Com: -0.833D-02 0.729D-01 0.183D+00 0.752D+00
 Coeff:     -0.833D-02 0.729D-01 0.183D+00 0.752D+00
 Gap=     0.408 Goal=   None    Shift=    0.000
 RMSDP=3.58D-08 MaxDP=3.20D-07 DE=-1.21D-09 OVMax= 5.45D-07

 Cycle   9  Pass 1  IDiag  1:
 E= -158.456660158242     Delta-E=       -0.000000000004 Rises=F Damp=F
 DIIS: error= 8.51D-08 at cycle   5 NSaved=   5.
 NSaved= 5 IEnMin= 5 EnMin= -158.456660158242     IErMin= 5 ErrMin= 8.51D-08
 ErrMax= 8.51D-08  0.00D+00 EMaxC= 1.00D-01 BMatC= 7.78D-13 BMatP= 3.14D-12
 IDIUse=1 WtCom= 1.00D+00 WtEn= 0.00D+00
 Coeff-Com: -0.251D-02 0.154D-01 0.424D-01 0.357D+00 0.588D+00
 Coeff:     -0.251D-02 0.154D-01 0.424D-01 0.357D+00 0.588D+00
 Gap=     0.408 Goal=   None    Shift=    0.000
 RMSDP=1.25D-08 MaxDP=1.49D-07 DE=-3.64D-12 OVMax= 2.15D-07

 Cycle  10  Pass 1  IDiag  1:
 E= -158.456660158241     Delta-E=        0.000000000001 Rises=F Damp=F
 DIIS: error= 1.62D-08 at cycle   6 NSaved=   6.
 NSaved= 6 IEnMin= 5 EnMin= -158.456660158242     IErMin= 6 ErrMin= 1.62D-08
 ErrMax= 1.62D-08  0.00D+00 EMaxC= 1.00D-01 BMatC= 2.87D-14 BMatP= 7.78D-13
 IDIUse=1 WtCom= 1.00D+00 WtEn= 0.00D+00
 Coeff-Com:  0.718D-04-0.245D-02-0.505D-02 0.438D-01 0.197D+00 0.767D+00
 Coeff:      0.718D-04-0.245D-02-0.505D-02 0.438D-01 0.197D+00 0.767D+00
 Gap=     0.408 Goal=   None    Shift=    0.000
 RMSDP=2.46D-09 MaxDP=2.81D-08 DE= 1.48D-12 OVMax= 4.96D-08

 SCF Done:  E(RB3LYP) =  -158.456660158     A.U. after   10 cycles
            NFock= 10  Conv=0.25D-08     -V/T= 2.0107
 KE= 1.567815972401D+02 PE=-6.286556277585D+02 EE= 1.817664904644D+02
 Leave Link  502 at Thu Mar 19 18:04:22 2026, MaxMem=   536870912 cpu:         5.0
 (Enter C:\G09W\l701.exe)
 Compute integral first derivatives.
 ... and contract with generalized density number  0.
 Leave Link  701 at Thu Mar 19 18:04:22 2026, MaxMem=   536870912 cpu:         0.0
 (Enter C:\G09W\l702.exe)
 L702 exits ... SP integral derivatives will be done elsewhere.
 Leave Link  702 at Thu Mar 19 18:04:23 2026, MaxMem=   536870912 cpu:         0.0
 (Enter C:\G09W\l703.exe)
 Compute integral first derivatives, UseDBF=F ICtDFT=           0.
 Integral derivatives from FoFJK, PRISM(SPDF).
 Calling FoFJK, ICntrl=      2127 FMM=F ISym2X=0 I1Cent= 0 IOpClX= 0 NMat=1 NMatS=1 NMatT=0.
 FoFJK:  IHMeth= 1 ICntrl=    2127 DoSepK=F KAlg= 0 I1Cent=   0 FoldK=F
 IRaf=         0 NMat=   1 IRICut=       1 DoRegI=T DoRafI=F ISym2E= 0.
 FoFCou: FMM=F IPFlag=           0 FMFlag=      100000 FMFlg1=         800
         NFxFlg=           0 DoJE=F BraDBF=F KetDBF=F FulRan=T
         wScrn=  0.000000 ICntrl=    2127 IOpCl=  0 I1Cent=           0 NGrid=           0
         NMat0=    1 NMatS0=      1 NMatT0=    0 NMatD0=    1 NMtDS0=    0 NMtDT0=    0
 Symmetry not used in FoFCou.
 Leave Link  703 at Thu Mar 19 18:04:24 2026, MaxMem=   536870912 cpu:         1.0
 (Enter C:\G09W\l716.exe)
 Dipole        = 6.14046924D-08 2.16968451D-02-7.51448681D-10
 ***** Axes restored to original set *****
 -------------------------------------------------------------------
 Center     Atomic                   Forces (Hartrees/Bohr)
 Number     Number              X              Y              Z
 -------------------------------------------------------------------
      1        6           0.000864907   -0.000642994   -0.000629611
      2        6           0.000155141    0.000951483    0.000396345
      3        6          -0.000292167    0.000682611    0.000731620
      4        6          -0.000734921   -0.000907540   -0.000440659
      5        1           0.000501761   -0.000035553    0.000230450
      6        1          -0.000017985   -0.000176866    0.000251308
      7        1           0.000435890   -0.000345620   -0.000256367
      8        1          -0.000267352    0.000361710   -0.000435142
      9        1           0.000347235    0.000058754    0.000440685
     10        1           0.000257898   -0.000248839    0.000513085
     11        1          -0.000384973    0.000391285   -0.000129990
     12        1          -0.000372681   -0.000408152   -0.000264005
     13        1          -0.000510954    0.000145369   -0.000154660
     14        1           0.000018200    0.000174353   -0.000253058
 -------------------------------------------------------------------
 Cartesian Forces:  Max     0.000951483 RMS     0.000443493
 Leave Link  716 at Thu Mar 19 18:04:24 2026, MaxMem=   536870912 cpu:         0.0
 (Enter C:\G09W\l103.exe)

 GradGradGradGradGradGradGradGradGradGradGradGradGradGradGradGradGradGrad
 Berny optimization.
 Using GEDIIS/GDIIS optimizer.
 FormGI is forming the generalized inverse of G from B-inverse, IUseBI=4.
 Internal  Forces:  Max     0.002040231 RMS     0.000557886
 Search for a local minimum.
 Step number   2 out of a maximum of   74
 All quantities printed in internal units (Hartrees-Bohrs-Radians)
 RMS Force = .55789D-03 SwitMx=.10000D-02 MixMth= 2
 Mixed Optimization -- En-DIIS/RFO-DIIS
 Update second derivatives using D2CorX and points    1    2
 DE= -5.72D-04 DEPred=-7.49D-04 R= 7.64D-01
 TightC=F SS=  1.41D+00  RLast= 1.18D-01 DXNew= 5.0454D-01 3.5285D-01
 Trust test= 7.64D-01 RLast= 1.18D-01 DXMaxT set to 3.53D-01
 ITU=  1  0
 Use linear search instead of GDIIS.
     Eigenvalues ---    0.00383   0.00484   0.00489   0.03393   0.03453
     Eigenvalues ---    0.04834   0.04929   0.05430   0.05480   0.05573
     Eigenvalues ---    0.05575   0.08705   0.08716   0.12471   0.12585
     Eigenvalues ---    0.15964   0.16000   0.16000   0.16000   0.16000
     Eigenvalues ---    0.16458   0.21932   0.22863   0.29664   0.30278
     Eigenvalues ---    0.32986   0.33864   0.34068   0.34102   0.34207
     Eigenvalues ---    0.34228   0.34266   0.34291   0.34346   0.34363
     Eigenvalues ---    0.35372
 RFO step:  Lambda=-2.32905271D-05 EMin= 3.83128287D-03
 Quartic linear search produced a step of -0.17708.
 Iteration  1 RMS(Cart)=  0.00840688 RMS(Int)=  0.00002833
 Iteration  2 RMS(Cart)=  0.00002759 RMS(Int)=  0.00001352
 Iteration  3 RMS(Cart)=  0.00000000 RMS(Int)=  0.00001352
 ITry= 1 IFail=0 DXMaxC= 2.74D-02 DCOld= 1.00D+10 DXMaxT= 3.53D-01 DXLimC= 3.00D+00 Rises=F
 Variable       Old X    -DE/DX   Delta X   Delta X   Delta X     New X
                                 (Linear)    (Quad)   (Total)
    R1        2.90368  -0.00204  -0.00523   0.00008  -0.00516   2.89852
    R2        2.07023   0.00023  -0.00053   0.00113   0.00059   2.07082
    R3        2.07307   0.00030  -0.00082   0.00160   0.00078   2.07384
    R4        2.07216  -0.00028  -0.00059  -0.00004  -0.00063   2.07152
    R5        2.91013  -0.00156  -0.00369  -0.00038  -0.00407   2.90606
    R6        2.07694   0.00045  -0.00095   0.00211   0.00116   2.07810
    R7        2.07678  -0.00037  -0.00082  -0.00003  -0.00084   2.07593
    R8        2.90368  -0.00204  -0.00523   0.00008  -0.00516   2.89852
    R9        2.07694   0.00045  -0.00095   0.00211   0.00116   2.07810
   R10        2.07678  -0.00037  -0.00082  -0.00003  -0.00084   2.07593
   R11        2.07216  -0.00028  -0.00059  -0.00004  -0.00063   2.07153
   R12        2.07023   0.00023  -0.00053   0.00113   0.00059   2.07082
   R13        2.07307   0.00030  -0.00082   0.00160   0.00078   2.07384
    A1        1.95519  -0.00037  -0.00160  -0.00024  -0.00183   1.95336
    A2        1.93782   0.00009   0.00005   0.00024   0.00028   1.93810
    A3        1.94147  -0.00064  -0.00365   0.00080  -0.00283   1.93864
    A4        1.87826   0.00009   0.00265  -0.00282  -0.00018   1.87808
    A5        1.87086   0.00058   0.00130   0.00190   0.00323   1.87409
    A6        1.87657   0.00031   0.00154   0.00007   0.00162   1.87819
    A7        2.00112  -0.00130  -0.00371  -0.00160  -0.00529   1.99583
    A8        1.90893   0.00012   0.00011   0.00016   0.00025   1.90918
    A9        1.90001   0.00055  -0.00098   0.00198   0.00102   1.90103
   A10        1.89927   0.00077   0.00335   0.00123   0.00458   1.90386
   A11        1.89876   0.00009  -0.00090  -0.00087  -0.00173   1.89703
   A12        1.84974  -0.00014   0.00253  -0.00088   0.00166   1.85140
   A13        2.00112  -0.00130  -0.00371  -0.00160  -0.00529   1.99583
   A14        1.89927   0.00077   0.00335   0.00123   0.00458   1.90386
   A15        1.89876   0.00009  -0.00090  -0.00087  -0.00173   1.89703
   A16        1.90893   0.00012   0.00011   0.00016   0.00025   1.90918
   A17        1.90001   0.00055  -0.00098   0.00198   0.00102   1.90103
   A18        1.84974  -0.00014   0.00253  -0.00088   0.00166   1.85140
   A19        1.94147  -0.00064  -0.00365   0.00080  -0.00283   1.93864
   A20        1.95519  -0.00037  -0.00160  -0.00024  -0.00182   1.95336
   A21        1.93782   0.00009   0.00005   0.00023   0.00028   1.93810
   A22        1.87086   0.00058   0.00130   0.00190   0.00323   1.87409
   A23        1.87657   0.00031   0.00154   0.00007   0.00162   1.87819
   A24        1.87826   0.00009   0.00265  -0.00283  -0.00018   1.87808
    D1        1.11530   0.00008   0.00558  -0.01242  -0.00682   1.10848
    D2       -1.02317  -0.00009   0.00375  -0.01302  -0.00926  -1.03242
    D3       -3.03687  -0.00029   0.00122  -0.01315  -0.01193  -3.04881
    D4       -0.98519   0.00016   0.00327  -0.00881  -0.00554  -0.99073
    D5       -3.12366  -0.00001   0.00144  -0.00941  -0.00797  -3.13164
    D6        1.14582  -0.00022  -0.00109  -0.00955  -0.01065   1.13516
    D7       -3.07431   0.00013   0.00371  -0.00960  -0.00589  -3.08020
    D8        1.07041  -0.00004   0.00188  -0.01020  -0.00832   1.06208
    D9       -0.94330  -0.00024  -0.00065  -0.01033  -0.01100  -0.95430
   D10       -1.12762   0.00003  -0.00213   0.00090  -0.00124  -1.12887
   D11        1.01606  -0.00013  -0.00207   0.00094  -0.00113   1.01492
   D12        3.02388   0.00015   0.00227   0.00009   0.00235   3.02623
   D13        1.01606  -0.00013  -0.00207   0.00094  -0.00113   1.01492
   D14       -3.12345  -0.00030  -0.00201   0.00097  -0.00102  -3.12447
   D15       -1.11563  -0.00001   0.00233   0.00012   0.00246  -1.11316
   D16        3.02388   0.00015   0.00227   0.00009   0.00235   3.02623
   D17       -1.11563  -0.00001   0.00233   0.00012   0.00246  -1.11317
   D18        0.89219   0.00028   0.00667  -0.00072   0.00595   0.89814
   D19       -3.07431   0.00013   0.00370  -0.00959  -0.00589  -3.08020
   D20        1.11530   0.00008   0.00558  -0.01242  -0.00682   1.10848
   D21       -0.98520   0.00016   0.00327  -0.00881  -0.00554  -0.99074
   D22        1.07040  -0.00004   0.00188  -0.01020  -0.00832   1.06208
   D23       -1.02317  -0.00009   0.00375  -0.01302  -0.00925  -1.03242
   D24       -3.12367  -0.00001   0.00144  -0.00941  -0.00797  -3.13164
   D25       -0.94330  -0.00024  -0.00065  -0.01033  -0.01100  -0.95430
   D26       -3.03687  -0.00029   0.00122  -0.01315  -0.01193  -3.04881
   D27        1.14581  -0.00022  -0.00109  -0.00955  -0.01065   1.13516
         Item               Value     Threshold  Converged?
 Maximum Force            0.002040     0.000450     NO 
 RMS     Force            0.000558     0.000300     NO 
 Maximum Displacement     0.027378     0.001800     NO 
 RMS     Displacement     0.008408     0.001200     NO 
 Predicted change in Energy=-3.958073D-05
 Lowest energy point so far.  Saving SCF results.
 GradGradGradGradGradGradGradGradGradGradGradGradGradGradGradGradGradGrad

 Leave Link  103 at Thu Mar 19 18:04:24 2026, MaxMem=   536870912 cpu:         0.0
 (Enter C:\G09W\l202.exe)
                          Input orientation:                          
 ---------------------------------------------------------------------
 Center     Atomic      Atomic             Coordinates (Angstroms)
 Number     Number       Type             X           Y           Z
 ---------------------------------------------------------------------
      1          6           0       -1.600221    0.471174    0.023913
      2          6           0       -0.566025   -0.321658   -0.785095
      3          6           0        0.658276   -0.778615    0.025562
      4          6           0        1.529933    0.367145    0.554789
      5          1           0       -1.189502    1.415194    0.399394
      6          1           0       -1.950307   -0.105990    0.889174
      7          1           0       -2.476189    0.715660   -0.588108
      8          1           0       -0.226865    0.284481   -1.637663
      9          1           0       -1.053375   -1.206900   -1.215931
     10          1           0        0.320341   -1.399363    0.868046
     11          1           0        1.274683   -1.432632   -0.606172
     12          1           0        2.417718   -0.018293    1.069511
     13          1           0        0.987107    0.998771    1.266996
     14          1           0        1.874428    1.011025   -0.264415
 ---------------------------------------------------------------------
                    Distance matrix (angstroms):
                    1          2          3          4          5
     1  C    0.000000
     2  C    1.533831   0.000000
     3  C    2.581237   1.537819   0.000000
     4  C    3.176557   2.581237   1.533831   0.000000
     5  H    1.095833   2.192804   2.892548   2.918541   0.000000
     6  H    1.097431   2.183100   2.828950   3.528136   1.769946
     7  H    1.096204   2.182557   3.526233   4.180513   1.766372
     8  H    2.163746   1.099685   2.163323   2.810698   2.520870
     9  H    2.156892   1.098537   2.157425   3.505218   3.082723
    10  H    2.810698   2.163323   1.099685   2.163746   3.228156
    11  H    3.505218   2.157425   1.098537   2.156892   3.897882
    12  H    4.180513   3.526233   2.182557   1.096204   3.939033
    13  H    2.918540   2.892547   2.192804   1.095833   2.379867
    14  H    3.528138   2.828950   2.183100   1.097431   3.160959
                    6          7          8          9         10
     6  H    0.000000
     7  H    1.770316   0.000000
     8  H    3.083444   2.519313   0.000000
     9  H    2.539282   2.472811   1.756472   0.000000
    10  H    2.613255   3.796614   3.068117   2.503417   0.000000
    11  H    3.794285   4.322559   2.503417   2.417150   1.756472
    12  H    4.372626   5.218880   3.796615   4.322559   2.519312
    13  H    3.160957   3.939032   3.228154   3.897881   2.520870
    14  H    4.148143   4.372629   2.613256   3.794285   3.083444
                   11         12         13         14
    11  H    0.000000
    12  H    2.472812   0.000000
    13  H    3.082723   1.766372   0.000000
    14  H    2.539281   1.770316   1.769946   0.000000
 Stoichiometry    C4H10
 Framework group  C1[X(C4H10)]
 Deg. of freedom    36
 Full point group                 C1      NOp   1
 RotChk:  IX=0 Diff= 1.93D-04
 Largest Abelian subgroup         C1      NOp   1
 Largest concise Abelian subgroup C1      NOp   1
                         Standard orientation:                         
 ---------------------------------------------------------------------
 Center     Atomic      Atomic             Coordinates (Angstroms)
 Number     Number       Type             X           Y           Z
 ---------------------------------------------------------------------
      1          6           0        1.583437   -0.557464    0.123926
      2          6           0        0.704598    0.623154   -0.307838
      3          6           0       -0.704598    0.623154    0.307838
      4          6           0       -1.583437   -0.557464   -0.123927
      5          1           0        1.171552   -1.517044   -0.208349
      6          1           0        1.679960   -0.598095    1.216349
      7          1           0        2.592682   -0.471623   -0.295261
      8          1           0        0.617997    0.632051   -1.404071
      9          1           0        1.208073    1.560574   -0.034821
     10          1           0       -0.617997    0.632051    1.404071
     11          1           0       -1.208073    1.560574    0.034821
     12          1           0       -2.592681   -0.471624    0.295262
     13          1           0       -1.171551   -1.517044    0.208347
     14          1           0       -1.679962   -0.598094   -1.216349
 ---------------------------------------------------------------------
 Rotational constants (GHZ):     13.2458883      4.6937807      4.0078881
 Leave Link  202 at Thu Mar 19 18:04:24 2026, MaxMem=   536870912 cpu:         0.0
 (Enter C:\G09W\l301.exe)
 Standard basis: 6-31G(d) (6D, 7F)
 Ernie: Thresh=  0.10000D-02 Tol=  0.10000D-05 Strict=F.
 There are    80 symmetry adapted cartesian basis functions of A   symmetry.
 There are    80 symmetry adapted basis functions of A   symmetry.
    80 basis functions,   152 primitive gaussians,    80 cartesian basis functions
    17 alpha electrons       17 beta electrons
       nuclear repulsion energy       131.8799207127 Hartrees.
 IExCor=  402 DFT=T Ex+Corr=B3LYP ExCW=0 ScaHFX=  0.200000
 ScaDFX=  0.800000  0.720000  1.000000  0.810000 ScalE2=  1.000000  1.000000
 IRadAn=      0 IRanWt=     -1 IRanGd=            0 ICorTp=0 IEmpDi=  4
 NAtoms=   14 NActive=   14 NUniq=   14 SFac= 1.00D+00 NAtFMM=   60 NAOKFM=F Big=F
 Integral buffers will be    131072 words long.
 Raffenetti 2 integral format.
 Two-electron integral symmetry is turned on.
 Leave Link  301 at Thu Mar 19 18:04:25 2026, MaxMem=   536870912 cpu:         0.0
 (Enter C:\G09W\l302.exe)
 NPDir=0 NMtPBC=     1 NCelOv=     1 NCel=       1 NClECP=     1 NCelD=      1
         NCelK=      1 NCelE2=     1 NClLst=     1 CellRange=     0.0.
 One-electron integrals computed using PRISM.
 NBasis=    80 RedAO= T EigKep=  5.57D-03  NBF=    80
 NBsUse=    80 1.00D-06 EigRej= -1.00D+00 NBFU=    80
 Precomputing XC quadrature grid using
 IXCGrd= 4 IRadAn=           0 IRanWt=          -1 IRanGd=           0 AccXCQ= 0.00D+00.
 Generated NRdTot=       0 NPtTot=           0 NUsed=           0 NTot=          32
 NSgBfM=    80    80    80    80    80 MxSgAt=    14 MxSgA2=    14.
 Leave Link  302 at Thu Mar 19 18:04:25 2026, MaxMem=   536870912 cpu:         0.0
 (Enter C:\G09W\l303.exe)
 DipDrv:  MaxL=1.
 Leave Link  303 at Thu Mar 19 18:04:25 2026, MaxMem=   536870912 cpu:         0.0
 (Enter C:\G09W\l401.exe)
 Initial guess from the checkpoint file:  "butane_rdkit.chk"
 B after Tr=     0.000000    0.000000    0.000000
         Rot=    1.000000    0.000000    0.000033    0.000000 Ang=   0.00 deg.
 Guess basis will be translated and rotated to current coordinates.
 JPrj=2 DoOrth=T DoCkMO=T.
 Generating alternative initial guess.
 ExpMin= 1.61D-01 ExpMax= 3.05D+03 ExpMxC= 4.57D+02 IAcc=1 IRadAn=         1 AccDes= 0.00D+00
 Harris functional with IExCor=  402 and IRadAn=       1 diagonalized for initial guess.
 HarFok:  IExCor=  402 AccDes= 0.00D+00 IRadAn=         1 IDoV= 1 UseB2=F ITyADJ=14
 ICtDFT=  3500011 ScaDFX=  1.000000  1.000000  1.000000  1.000000
 FoFCou: FMM=F IPFlag=           0 FMFlag=      100000 FMFlg1=           0
         NFxFlg=           0 DoJE=T BraDBF=F KetDBF=T FulRan=T
         wScrn=  0.000000 ICntrl=     500 IOpCl=  0 I1Cent=   200000004 NGrid=           0
         NMat0=    1 NMatS0=      1 NMatT0=    0 NMatD0=    1 NMtDS0=    0 NMtDT0=    0
 Petite list used in FoFCou.
 Harris En= -158.525255700724    
 Leave Link  401 at Thu Mar 19 18:04:26 2026, MaxMem=   536870912 cpu:         0.0
 (Enter C:\G09W\l502.exe)
 Closed shell SCF:
 Using DIIS extrapolation, IDIIS=  1040.
 Integral symmetry usage will be decided dynamically.
 Keep R1 ints in memory in canonical form, NReq=6191884.
 IVT=       38854 IEndB=       38854 NGot=   536870912 MDV=   531581639
 LenX=   531581639 LenY=   531574798
 Requested convergence on RMS density matrix=1.00D-08 within 128 cycles.
 Requested convergence on MAX density matrix=1.00D-06.
 Requested convergence on             energy=1.00D-06.
 No special actions if energy rises.
 FoFCou: FMM=F IPFlag=           0 FMFlag=           0 FMFlg1=           0
         NFxFlg=           0 DoJE=F BraDBF=F KetDBF=F FulRan=T
         wScrn=  0.000000 ICntrl=     600 IOpCl=  0 I1Cent=           0 NGrid=           0
         NMat0=    1 NMatS0=   3240 NMatT0=    0 NMatD0=    1 NMtDS0=    0 NMtDT0=    0
 Symmetry not used in FoFCou.
 Integral accuracy reduced to 1.0D-05 until final iterations.

 Cycle   1  Pass 0  IDiag  1:
 E= -158.456572454182    
 DIIS: error= 5.28D-04 at cycle   1 NSaved=   1.
 NSaved= 1 IEnMin= 1 EnMin= -158.456572454182     IErMin= 1 ErrMin= 5.28D-04
 ErrMax= 5.28D-04  0.00D+00 EMaxC= 1.00D-01 BMatC= 2.14D-05 BMatP= 2.14D-05
 IDIUse=3 WtCom= 9.95D-01 WtEn= 5.28D-03
 Coeff-Com:  0.100D+01
 Coeff-En:   0.100D+01
 Coeff:      0.100D+01
 Gap=     1.901 Goal=   None    Shift=    0.000
 RMSDP=8.10D-05 MaxDP=8.76D-04              OVMax= 1.84D-03

 Cycle   2  Pass 0  IDiag  1:
 E= -158.456614212169     Delta-E=       -0.000041757987 Rises=F Damp=F
 DIIS: error= 6.32D-05 at cycle   2 NSaved=   2.
 NSaved= 2 IEnMin= 2 EnMin= -158.456614212169     IErMin= 2 ErrMin= 6.32D-05
 ErrMax= 6.32D-05  0.00D+00 EMaxC= 1.00D-01 BMatC= 4.81D-07 BMatP= 2.14D-05
 IDIUse=1 WtCom= 1.00D+00 WtEn= 0.00D+00
 Coeff-Com: -0.322D-01 0.103D+01
 Coeff:     -0.322D-01 0.103D+01
 Gap=     0.408 Goal=   None    Shift=    0.000
 RMSDP=1.77D-05 MaxDP=1.69D-04 DE=-4.18D-05 OVMax= 3.17D-04

 Cycle   3  Pass 0  IDiag  1:
 E= -158.456614522077     Delta-E=       -0.000000309908 Rises=F Damp=F
 DIIS: error= 5.98D-05 at cycle   3 NSaved=   3.
 NSaved= 3 IEnMin= 3 EnMin= -158.456614522077     IErMin= 3 ErrMin= 5.98D-05
 ErrMax= 5.98D-05  0.00D+00 EMaxC= 1.00D-01 BMatC= 4.05D-07 BMatP= 4.81D-07
 IDIUse=1 WtCom= 1.00D+00 WtEn= 0.00D+00
 Coeff-Com: -0.391D-01 0.508D+00 0.531D+00
 Coeff:     -0.391D-01 0.508D+00 0.531D+00
 Gap=     0.408 Goal=   None    Shift=    0.000
 RMSDP=8.78D-06 MaxDP=1.14D-04 DE=-3.10D-07 OVMax= 1.44D-04

 Initial convergence to 1.0D-05 achieved.  Increase integral accuracy.
 Cycle   4  Pass 1  IDiag  1:
[...]
   D25       -0.96989   0.00000  -0.00008   0.00001  -0.00007  -0.96997
   D26       -3.06489   0.00000  -0.00003   0.00001  -0.00002  -3.06490
   D27        1.11984   0.00000  -0.00010   0.00002  -0.00009   1.11975
         Item               Value     Threshold  Converged?
 Maximum Force            0.000016     0.000450     YES
 RMS     Force            0.000005     0.000300     YES
 Maximum Displacement     0.000346     0.001800     YES
 RMS     Displacement     0.000130     0.001200     YES
 Predicted change in Energy=-5.503643D-09
 Optimization completed.
    -- Stationary point found.
                           ----------------------------
                           !   Optimized Parameters   !
                           ! (Angstroms and Degrees)  !
 --------------------------                            --------------------------
 ! Name  Definition              Value          Derivative Info.                !
 --------------------------------------------------------------------------------
 ! R1    R(1,2)                  1.5332         -DE/DX =    0.0                 !
 ! R2    R(1,5)                  1.0958         -DE/DX =    0.0                 !
 ! R3    R(1,6)                  1.0975         -DE/DX =    0.0                 !
 ! R4    R(1,7)                  1.0961         -DE/DX =    0.0                 !
 ! R5    R(2,3)                  1.5379         -DE/DX =    0.0                 !
 ! R6    R(2,8)                  1.0997         -DE/DX =    0.0                 !
 ! R7    R(2,9)                  1.0985         -DE/DX =    0.0                 !
 ! R8    R(3,4)                  1.5332         -DE/DX =    0.0                 !
 ! R9    R(3,10)                 1.0997         -DE/DX =    0.0                 !
 ! R10   R(3,11)                 1.0985         -DE/DX =    0.0                 !
 ! R11   R(4,12)                 1.0961         -DE/DX =    0.0                 !
 ! R12   R(4,13)                 1.0958         -DE/DX =    0.0                 !
 ! R13   R(4,14)                 1.0975         -DE/DX =    0.0                 !
 ! A1    A(2,1,5)              111.9324         -DE/DX =    0.0                 !
 ! A2    A(2,1,6)              111.0352         -DE/DX =    0.0                 !
 ! A3    A(2,1,7)              111.0891         -DE/DX =    0.0                 !
 ! A4    A(5,1,6)              107.5706         -DE/DX =    0.0                 !
 ! A5    A(5,1,7)              107.3855         -DE/DX =    0.0                 !
 ! A6    A(6,1,7)              107.6226         -DE/DX =    0.0                 !
 ! A7    A(1,2,3)              114.395          -DE/DX =    0.0                 !
 ! A8    A(1,2,8)              109.4161         -DE/DX =    0.0                 !
 ! A9    A(1,2,9)              108.8824         -DE/DX =    0.0                 !
 ! A10   A(3,2,8)              109.0917         -DE/DX =    0.0                 !
 ! A11   A(3,2,9)              108.6833         -DE/DX =    0.0                 !
 ! A12   A(8,2,9)              106.0387         -DE/DX =    0.0                 !
 ! A13   A(2,3,4)              114.395          -DE/DX =    0.0                 !
 ! A14   A(2,3,10)             109.0917         -DE/DX =    0.0                 !
 ! A15   A(2,3,11)             108.6833         -DE/DX =    0.0                 !
 ! A16   A(4,3,10)             109.4161         -DE/DX =    0.0                 !
 ! A17   A(4,3,11)             108.8824         -DE/DX =    0.0                 !
 ! A18   A(10,3,11)            106.0387         -DE/DX =    0.0                 !
 ! A19   A(3,4,12)             111.0891         -DE/DX =    0.0                 !
 ! A20   A(3,4,13)             111.9324         -DE/DX =    0.0                 !
 ! A21   A(3,4,14)             111.0352         -DE/DX =    0.0                 !
 ! A22   A(12,4,13)            107.3855         -DE/DX =    0.0                 !
 ! A23   A(12,4,14)            107.6226         -DE/DX =    0.0                 !
 ! A24   A(13,4,14)            107.5706         -DE/DX =    0.0                 !
 ! D1    D(5,1,2,3)             62.6011         -DE/DX =    0.0                 !
 ! D2    D(5,1,2,8)            -60.127          -DE/DX =    0.0                 !
 ! D3    D(5,1,2,9)           -175.6051         -DE/DX =    0.0                 !
 ! D4    D(6,1,2,3)            -57.6319         -DE/DX =    0.0                 !
 ! D5    D(6,1,2,8)            179.64           -DE/DX =    0.0                 !
 ! D6    D(6,1,2,9)             64.1619         -DE/DX =    0.0                 !
 ! D7    D(7,1,2,3)           -177.3646         -DE/DX =    0.0                 !
 ! D8    D(7,1,2,8)             59.9073         -DE/DX =    0.0                 !
 ! D9    D(7,1,2,9)            -55.5708         -DE/DX =    0.0                 !
 ! D10   D(1,2,3,4)            -65.5263         -DE/DX =    0.0                 !
 ! D11   D(1,2,3,10)            57.3776         -DE/DX =    0.0                 !
 ! D12   D(1,2,3,11)           172.5709         -DE/DX =    0.0                 !
 ! D13   D(8,2,3,4)             57.3776         -DE/DX =    0.0                 !
 ! D14   D(8,2,3,10)          -179.7186         -DE/DX =    0.0                 !
 ! D15   D(8,2,3,11)           -64.5252         -DE/DX =    0.0                 !
 ! D16   D(9,2,3,4)            172.5709         -DE/DX =    0.0                 !
 ! D17   D(9,2,3,10)           -64.5252         -DE/DX =    0.0                 !
 ! D18   D(9,2,3,11)            50.6681         -DE/DX =    0.0                 !
 ! D19   D(2,3,4,12)          -177.3646         -DE/DX =    0.0                 !
 ! D20   D(2,3,4,13)            62.6011         -DE/DX =    0.0                 !
 ! D21   D(2,3,4,14)           -57.6319         -DE/DX =    0.0                 !
 ! D22   D(10,3,4,12)           59.9073         -DE/DX =    0.0                 !
 ! D23   D(10,3,4,13)          -60.127          -DE/DX =    0.0                 !
 ! D24   D(10,3,4,14)          179.64           -DE/DX =    0.0                 !
 ! D25   D(11,3,4,12)          -55.5708         -DE/DX =    0.0                 !
 ! D26   D(11,3,4,13)         -175.6051         -DE/DX =    0.0                 !
 ! D27   D(11,3,4,14)           64.1619         -DE/DX =    0.0                 !
 --------------------------------------------------------------------------------
 Lowest energy point so far.  Saving SCF results.
 GradGradGradGradGradGradGradGradGradGradGradGradGradGradGradGradGradGrad

 Largest change from initial coordinates is atom    6       0.072 Angstoms.
 Leave Link  103 at Thu Mar 19 18:04:57 2026, MaxMem=   536870912 cpu:         1.0
 (Enter C:\G09W\l202.exe)
                          Input orientation:                          
 ---------------------------------------------------------------------
 Center     Atomic      Atomic             Coordinates (Angstroms)
 Number     Number       Type             X           Y           Z
 ---------------------------------------------------------------------
      1          6           0       -1.605488    0.465764    0.026555
      2          6           0       -0.566089   -0.318326   -0.783182
      3          6           0        0.657814   -0.775668    0.027983
      4          6           0        1.535556    0.368316    0.549221
      5          1           0       -1.195078    1.401634    0.422140
      6          1           0       -1.967374   -0.123635    0.878658
      7          1           0       -2.473530    0.723947   -0.590905
      8          1           0       -0.226985    0.293015   -1.632099
      9          1           0       -1.049277   -1.202894   -1.220030
     10          1           0        0.319061   -1.391201    0.874008
     11          1           0        1.270491   -1.435515   -0.601298
     12          1           0        2.414368   -0.018312    1.078014
     13          1           0        0.992389    1.015848    1.246679
     14          1           0        1.894146    0.997026   -0.275744
 ---------------------------------------------------------------------
                    Distance matrix (angstroms):
                    1          2          3          4          5
     1  C    0.000000
     2  C    1.533239   0.000000
     3  C    2.581412   1.537885   0.000000
     4  C    3.185723   2.581412   1.533239   0.000000
     5  H    1.095799   2.192417   2.886038   2.922372   0.000000
     6  H    1.097466   2.182479   2.835561   3.552614   1.769546
     7  H    1.096090   2.182117   3.526639   4.183197   1.766341
     8  H    2.163619   1.099723   2.163522   2.805420   2.527081
     9  H    2.155867   1.098529   2.157364   3.504328   3.082458
    10  H    2.805420   2.163522   1.099723   2.163619   3.208851
    11  H    3.504328   2.157364   1.098529   2.155867   3.895622
    12  H    4.183197   3.526639   2.182117   1.096090   3.933766
    13  H    2.922372   2.886038   2.192417   1.095799   2.369326
    14  H    3.552614   2.835561   2.182479   1.097466   3.192814
                    6          7          8          9         10
     6  H    0.000000
     7  H    1.770368   0.000000
     8  H    3.083253   2.513315   0.000000
     9  H    2.532230   2.477299   1.756049   0.000000
    10  H    2.614294   3.797155   3.068440   2.508546   0.000000
    11  H    3.794083   4.322161   2.508546   2.412108   1.756049
    12  H    4.387539   5.218025   3.797155   4.322161   2.513315
    13  H    3.192814   3.933766   3.208852   3.895622   2.527081
    14  H    4.183284   4.387539   2.614294   3.794083   3.083253
                   11         12         13         14
    11  H    0.000000
    12  H    2.477298   0.000000
    13  H    3.082458   1.766341   0.000000
    14  H    2.532231   1.770368   1.769546   0.000000
 Stoichiometry    C4H10
 Framework group  C1[X(C4H10)]
 Deg. of freedom    36
 Full point group                 C1      NOp   1
 RotChk:  IX=2 Diff= 1.68D-15
 Largest Abelian subgroup         C1      NOp   1
 Largest concise Abelian subgroup C1      NOp   1
                         Standard orientation:                         
 ---------------------------------------------------------------------
 Center     Atomic      Atomic             Coordinates (Angstroms)
 Number     Number       Type             X           Y           Z
 ---------------------------------------------------------------------
      1          6           0        1.587996   -0.554517    0.124408
      2          6           0        0.703329    0.619695   -0.310806
      3          6           0       -0.703329    0.619695    0.310806
      4          6           0       -1.587996   -0.554517   -0.124408
      5          1           0        1.170014   -1.518821   -0.185728
      6          1           0        1.702095   -0.578458    1.215664
      7          1           0        2.590243   -0.476293   -0.312393
      8          1           0        0.612278    0.622248   -1.406750
      9          1           0        1.205186    1.560256   -0.045754
     10          1           0       -0.612278    0.622248    1.406750
     11          1           0       -1.205186    1.560256    0.045754
     12          1           0       -2.590243   -0.476293    0.312393
     13          1           0       -1.170014   -1.518821    0.185728
     14          1           0       -1.702095   -0.578458   -1.215664
 ---------------------------------------------------------------------
 Rotational constants (GHZ):     13.3057533      4.6739143      4.0028434
 Leave Link  202 at Thu Mar 19 18:04:57 2026, MaxMem=   536870912 cpu:         0.0
 (Enter C:\G09W\l601.exe)
 Copying SCF densities to generalized density rwf, IOpCl= 0 IROHF=0.

 **********************************************************************

            Population analysis using the SCF density.

 **********************************************************************

 Orbital symmetries:
       Occupied  (A) (A) (A) (A) (A) (A) (A) (A) (A) (A) (A) (A)
                 (A) (A) (A) (A) (A)
       Virtual   (A) (A) (A) (A) (A) (A) (A) (A) (A) (A) (A) (A)
                 (A) (A) (A) (A) (A) (A) (A) (A) (A) (A) (A) (A)
                 (A) (A) (A) (A) (A) (A) (A) (A) (A) (A) (A) (A)
                 (A) (A) (A) (A) (A) (A) (A) (A) (A) (A) (A) (A)
                 (A) (A) (A) (A) (A) (A) (A) (A) (A) (A) (A) (A)
                 (A) (A) (A)
 The electronic state is 1-A.
 Alpha  occ. eigenvalues --  -10.17623 -10.17602 -10.16952 -10.16952  -0.78666
 Alpha  occ. eigenvalues --   -0.71435  -0.63562  -0.56209  -0.45071  -0.44832
 Alpha  occ. eigenvalues --   -0.41194  -0.37863  -0.37785  -0.35519  -0.32096
 Alpha  occ. eigenvalues --   -0.31805  -0.31764
 Alpha virt. eigenvalues --    0.09027   0.13120   0.13752   0.14831   0.16516
 Alpha virt. eigenvalues --    0.17189   0.18126   0.18758   0.20260   0.21756
 Alpha virt. eigenvalues --    0.23571   0.24602   0.28417   0.50387   0.52594
 Alpha virt. eigenvalues --    0.52725   0.53898   0.56681   0.62514   0.66120
 Alpha virt. eigenvalues --    0.66397   0.69109   0.72812   0.83104   0.85465
 Alpha virt. eigenvalues --    0.87055   0.88385   0.89248   0.90108   0.91584
 Alpha virt. eigenvalues --    0.95290   0.96895   0.97324   1.00288   1.01307
 Alpha virt. eigenvalues --    1.02516   1.27024   1.44637   1.45703   1.56727
 Alpha virt. eigenvalues --    1.60518   1.68570   1.71845   1.86213   1.92820
 Alpha virt. eigenvalues --    1.97548   1.97933   2.01126   2.10278   2.11796
 Alpha virt. eigenvalues --    2.27865   2.29335   2.30174   2.34609   2.39701
 Alpha virt. eigenvalues --    2.43492   2.60693   2.61292   2.70839   4.11996
 Alpha virt. eigenvalues --    4.24218   4.38996   4.50018
          Condensed to atoms (all electrons):
               1          2          3          4          5          6
     1  C    5.064162   0.379344  -0.047087  -0.004121   0.378821   0.376934
     2  C    0.379344   4.948100   0.390726  -0.047087  -0.034506  -0.036275
     3  C   -0.047087   0.390726   4.948100   0.379344  -0.004930  -0.004161
     4  C   -0.004121  -0.047087   0.379344   5.064162   0.003063  -0.000466
     5  H    0.378821  -0.034506  -0.004930   0.003063   0.574129  -0.033078
     6  H    0.376934  -0.036275  -0.004161  -0.000466  -0.033078   0.581326
     7  H    0.373549  -0.028403   0.004427   0.000067  -0.031485  -0.031348
     8  H   -0.040848   0.375476  -0.040184  -0.006440  -0.004522   0.005391
     9  H   -0.039786   0.375324  -0.035211   0.005096   0.005208  -0.004141
    10  H   -0.006440  -0.040184   0.375476  -0.040848  -0.000154   0.005516
    11  H    0.005096  -0.035211   0.375324  -0.039786  -0.000019   0.000005
    12  H    0.000067   0.004427  -0.028403   0.373549  -0.000106  -0.000021
    13  H    0.003063  -0.004930  -0.034506   0.378821   0.002122   0.000261
    14  H   -0.000466  -0.004161  -0.036275   0.376934   0.000261   0.000074
               7          8          9         10         11         12
     1  C    0.373549  -0.040848  -0.039786  -0.006440   0.005096   0.000067
     2  C   -0.028403   0.375476   0.375324  -0.040184  -0.035211   0.004427
     3  C    0.004427  -0.040184  -0.035211   0.375476   0.375324  -0.028403
     4  C    0.000067  -0.006440   0.005096  -0.040848  -0.039786   0.373549
     5  H   -0.031485  -0.004522   0.005208  -0.000154  -0.000019  -0.000106
     6  H   -0.031348   0.005391  -0.004141   0.005516   0.000005  -0.000021
     7  H    0.578087  -0.002505  -0.003469  -0.000016  -0.000166   0.000000
     8  H   -0.002505   0.615041  -0.038434   0.006039  -0.002906  -0.000016
     9  H   -0.003469  -0.038434   0.612525  -0.002906  -0.003837  -0.000166
    10  H   -0.000016   0.006039  -0.002906   0.615041  -0.038434  -0.002505
    11  H   -0.000166  -0.002906  -0.003837  -0.038434   0.612525  -0.003469
    12  H    0.000000  -0.000016  -0.000166  -0.002505  -0.003469   0.578087
    13  H   -0.000106  -0.000154  -0.000019  -0.004522   0.005208  -0.031484
    14  H   -0.000021   0.005516   0.000005   0.005391  -0.004141  -0.031348
              13         14
     1  C    0.003063  -0.000466
     2  C   -0.004930  -0.004161
     3  C   -0.034506  -0.036275
     4  C    0.378821   0.376934
     5  H    0.002122   0.000261
     6  H    0.000261   0.000074
     7  H   -0.000106  -0.000021
     8  H   -0.000154   0.005516
     9  H   -0.000019   0.000005
    10  H   -0.004522   0.005391
    11  H    0.005208  -0.004141
    12  H   -0.031484  -0.031348
    13  H    0.574129  -0.033078
    14  H   -0.033078   0.581326
 Mulliken charges:
               1
     1  C   -0.442287
     2  C   -0.242640
     3  C   -0.242640
     4  C   -0.442287
     5  H    0.145196
     6  H    0.139984
     7  H    0.141387
     8  H    0.128548
     9  H    0.129813
    10  H    0.128548
    11  H    0.129813
    12  H    0.141387
    13  H    0.145196
    14  H    0.139984
 Sum of Mulliken charges =   0.00000
 Mulliken charges with hydrogens summed into heavy atoms:
               1
     1  C   -0.015720
     2  C    0.015720
     3  C    0.015720
     4  C   -0.015720
 Electronic spatial extent (au):  <R**2>=            384.3330
 Charge=              0.0000 electrons
 Dipole moment (field-independent basis, Debye):
    X=              0.0000    Y=              0.0588    Z=              0.0000  Tot=              0.0588
 Quadrupole moment (field-independent basis, Debye-Ang):
   XX=            -28.3618   YY=            -28.2789   ZZ=            -27.9776
   XY=              0.0000   XZ=             -0.0387   YZ=              0.0000
 Traceless Quadrupole moment (field-independent basis, Debye-Ang):
   XX=             -0.1557   YY=             -0.0728   ZZ=              0.2285
   XY=              0.0000   XZ=             -0.0387   YZ=              0.0000
 Octapole moment (field-independent basis, Debye-Ang**2):
  XXX=              0.0000  YYY=              0.2236  ZZZ=              0.0000  XYY=              0.0000
  XXY=              1.0556  XXZ=              0.0000  XZZ=              0.0000  YZZ=              0.0043
  YYZ=              0.0000  XYZ=              0.3601
 Hexadecapole moment (field-independent basis, Debye-Ang**3):
 XXXX=           -331.4001 YYYY=           -122.9378 ZZZZ=            -66.2757 XXXY=              0.0000
 XXXZ=             -3.7568 YYYX=              0.0000 YYYZ=              0.0000 ZZZX=              1.4633
 ZZZY=              0.0000 XXYY=            -78.7179 XXZZ=            -67.3351 YYZZ=            -33.4192
 XXYZ=              0.0000 YYXZ=              0.0900 ZZXY=              0.0000
 N-N= 1.318608065457D+02 E-N=-6.290858862634D+02  KE= 1.567963018729D+02
 No NMR shielding tensors so no spin-rotation constants.
 Leave Link  601 at Thu Mar 19 18:04:57 2026, MaxMem=   536870912 cpu:         0.0
 (Enter C:\G09W\l9999.exe)
 1|1|UNPC-DESKTOP-GS7R1K3|FOpt|RB3LYP|6-31G(d)|C4H10|1172|19-Mar-2026|0
 ||#p opt B3LYP/6-31G(d)||butane||0,1|C,-1.6054879266,0.4657638784,0.02
 65551742|C,-0.5660893214,-0.3183264054,-0.7831820814|C,0.6578136035,-0
 .7756683654,0.0279834296|C,1.5355560052,0.368316277,0.5492212511|H,-1.
 1950783277,1.4016340021,0.4221402448|H,-1.9673743973,-0.1236349014,0.8
 786575627|H,-2.4735302596,0.723946763,-0.5909053351|H,-0.2269854216,0.
 2930150949,-1.6320992923|H,-1.0492774875,-1.2028936799,-1.2200300722|H
 ,0.3190610774,-1.3912006409,0.8740076983|H,1.2704906035,-1.4355154974,
 -0.6012978222|H,2.4143677044,-0.0183122936,1.0780139507|H,0.9923887306
 ,1.0158484573,1.246679394|H,1.894146417,0.9970263113,-0.2757441022||Ve
 rsion=EM64W-G09RevD.01|State=1-A|HF=-158.4567086|RMSD=3.820e-009|RMSF=
 9.870e-006|Dipole=0.0015938,-0.0190089,-0.0131221|Quadrupole=-0.113320
 7,0.019727,0.0935938,0.018145,-0.0334751,-0.1047783|PG=C01 [X(C4H10)]|
 |@


 QUANTUM MECHANICS IS BOHRING -- M.S. GORDON
 Job cpu time:       0 days  0 hours  0 minutes 53.0 seconds.
 File lengths (MBytes):  RWF=      6 Int=      0 D2E=      0 Chk=      2 Scr=      1
 Normal termination of Gaussian 09 at Thu Mar 19 18:04:57 2026.
