 Entering Gaussian System, Link 0=C:\G09W\g09.exe
 Input=acetophenone_ml.com
 Output=C:\workspace\delta_chem\data\raw\benchmark_new\acetophenone\acetophenone_ml.out
 Initial command:
 C:\G09W\l1.exe ".\Gau-12912.inp" "C:\workspace\delta_chem\data\raw\benchmark_new\acetophenone\acetophenone_ml.out" /scrdir=".\"
 Entering Link 1 = C:\G09W\l1.exe PID=      6812.
  
 Copyright (c) 1988,1990,1992,1993,1995,1998,2003,2009,2013,
            Gaussian, Inc.  All Rights Reserved.
  
 This is part of the Gaussian(R) 09 program.  It is based on
 the Gaussian(R) 03 system (copyright 2003, Gaussian, Inc.),
 the Gaussian(R) 98 system (copyright 1998, Gaussian, Inc.),
 the Gaussian(R) 94 system (copyright 1995, Gaussian, Inc.),
 the Gaussian 92(TM) system (copyright 1992, Gaussian, Inc.),
 the Gaussian 90(TM) system (copyright 1990, Gaussian, Inc.),
 the Gaussian 88(TM) system (copyright 1988, Gaussian, Inc.),
 the Gaussian 86(TM) system (copyright 1986, Carnegie Mellon
 University), and the Gaussian 82(TM) system (copyright 1983,
 Carnegie Mellon University). Gaussian is a federally registered
 trademark of Gaussian, Inc.
  
 This software contains proprietary and confidential information,
 including trade secrets, belonging to Gaussian, Inc.
  
 This software is provided under written license and may be
 used, copied, transmitted, or stored only in accord with that
 written license.
  
 The following legend is applicable only to US Government
 contracts under FAR:
  
                    RESTRICTED RIGHTS LEGEND
  
 Use, reproduction and disclosure by the US Government is
 subject to restrictions as set forth in subparagraphs (a)
 and (c) of the Commercial Computer Software - Restricted
 Rights clause in FAR 52.227-19.
  
 Gaussian, Inc.
 340 Quinnipiac St., Bldg. 40, Wallingford CT 06492
  
  
 ---------------------------------------------------------------
 Warning -- This program may not be used in any manner that
 competes with the business of Gaussian, Inc. or will provide
 assistance to any competitor of Gaussian, Inc.  The licensee
 of this program is prohibited from giving any competitor of
 Gaussian, Inc. access to this program.  By using this program,
 the user acknowledges that Gaussian, Inc. is engaged in the
 business of creating and licensing software in the field of
 computational chemistry and represents and warrants to the
 licensee that it is not a competitor of Gaussian, Inc. and that
 it will not use this program in any manner prohibited above.
 ---------------------------------------------------------------
  

 Cite this work as:
 Gaussian 09, Revision D.01,
 M. J. Frisch, G. W. Trucks, H. B. Schlegel, G. E. Scuseria, 
 M. A. Robb, J. R. Cheeseman, G. Scalmani, V. Barone, B. Mennucci, 
 G. A. Petersson, H. Nakatsuji, M. Caricato, X. Li, H. P. Hratchian, 
 A. F. Izmaylov, J. Bloino, G. Zheng, J. L. Sonnenberg, M. Hada, 
 M. Ehara, K. Toyota, R. Fukuda, J. Hasegawa, M. Ishida, T. Nakajima, 
 Y. Honda, O. Kitao, H. Nakai, T. Vreven, J. A. Montgomery, Jr., 
 J. E. Peralta, F. Ogliaro, M. Bearpark, J. J. Heyd, E. Brothers, 
 K. N. Kudin, V. N. Staroverov, T. Keith, R. Kobayashi, J. Normand, 
 K. Raghavachari, A. Rendell, J. C. Burant, S. S. Iyengar, J. Tomasi, 
 M. Cossi, N. Rega, J. M. Millam, M. Klene, J. E. Knox, J. B. Cross, 
 V. Bakken, C. Adamo, J. Jaramillo, R. Gomperts, R. E. Stratmann, 
 O. Yazyev, A. J. Austin, R. Cammi, C. Pomelli, J. W. Ochterski, 
 R. L. Martin, K. Morokuma, V. G. Zakrzewski, G. A. Voth, 
 P. Salvador, J. J. Dannenberg, S. Dapprich, A. D. Daniels, 
 O. Farkas, J. B. Foresman, J. V. Ortiz, J. Cioslowski, 
 and D. J. Fox, Gaussian, Inc., Wallingford CT, 2013.
 
 ******************************************
 Gaussian 09:  EM64W-G09RevD.01 13-Apr-2013
                20-Mar-2026 
 ******************************************
 %NProcShared=4
 Will use up to    4 processors via shared memory.
 %Mem=4GB
 %Chk=acetophenone_ml.chk
 --------------------------
 #p opt freq B3LYP/6-31G(d)
 --------------------------
 1/14=-1,18=20,19=15,26=3,38=1/1,3;
 2/9=110,12=2,17=6,18=5,40=1/2;
 3/5=1,6=6,7=1,11=2,16=1,25=1,30=1,71=1,74=-5/1,2,3;
 4//1;
 5/5=2,38=5/2;
 6/7=2,8=2,9=2,10=2,28=1/1;
 7//1,2,3,16;
 1/14=-1,18=20,19=15,26=3/3(2);
 2/9=110/2;
 99//99;
 2/9=110/2;
 3/5=1,6=6,7=1,11=2,16=1,25=1,30=1,71=1,74=-5/1,2,3;
 4/5=5,16=3,69=1/1;
 5/5=2,38=5/2;
 7//1,2,3,16;
 1/14=-1,18=20,19=15,26=3/3(-5);
 2/9=110/2;
 6/7=2,8=2,9=2,10=2,19=2,28=1/1;
 99/9=1/99;
 Leave Link    1 at Fri Mar 20 17:33:10 2026, MaxMem=   536870912 cpu:         0.0
 (Enter C:\G09W\l101.exe)
 ---------------
 acetophenone ml
 ---------------
 Symbolic Z-matrix:
 Charge =  0 Multiplicity = 1
 C                    -2.58407   0.77467   0.5043 
 C                    -1.69879  -0.46297   0.49386 
 O                    -2.17089  -1.55468   0.70555 
 C                    -0.23781  -0.29231   0.2162 
 C                     0.33567   0.95547  -0.03169 
 C                     1.706     1.05112  -0.28455 
 C                     2.50119  -0.09501  -0.28994 
 C                     1.92593  -1.3423   -0.04179 
 C                     0.55745  -1.44179   0.2112 
 H                    -2.57088   1.25919  -0.47707 
 H                    -3.61711   0.47643   0.72149 
 H                    -2.25978   1.46682   1.28774 
 H                    -0.25223   1.86941  -0.03554 
 H                     2.15846   2.02039  -0.47834 
 H                     3.56733  -0.02027  -0.48671 
 H                     2.54303  -2.23821  -0.04521 
 H                     0.11894  -2.42117   0.40372 
 
 NAtoms=     17 NQM=       17 NQMF=       0 NMMI=      0 NMMIF=      0
                NMic=       0 NMicF=      0.
                    Isotopes and Nuclear Properties:
 (Nuclear quadrupole moments (NQMom) in fm**2, nuclear magnetic moments (NMagM)
  in nuclear magnetons)

  Atom         1           2           3           4           5           6           7           8           9          10
 IAtWgt=          12          12          16          12          12          12          12          12          12           1
 AtmWgt=  12.0000000  12.0000000  15.9949146  12.0000000  12.0000000  12.0000000  12.0000000  12.0000000  12.0000000   1.0078250
 NucSpn=           0           0           0           0           0           0           0           0           0           1
 AtZEff=   0.0000000   0.0000000   0.0000000   0.0000000   0.0000000   0.0000000   0.0000000   0.0000000   0.0000000   0.0000000
 NQMom=    0.0000000   0.0000000   0.0000000   0.0000000   0.0000000   0.0000000   0.0000000   0.0000000   0.0000000   0.0000000
 NMagM=    0.0000000   0.0000000   0.0000000   0.0000000   0.0000000   0.0000000   0.0000000   0.0000000   0.0000000   2.7928460
 AtZNuc=   6.0000000   6.0000000   8.0000000   6.0000000   6.0000000   6.0000000   6.0000000   6.0000000   6.0000000   1.0000000

  Atom        11          12          13          14          15          16          17
 IAtWgt=           1           1           1           1           1           1           1
 AtmWgt=   1.0078250   1.0078250   1.0078250   1.0078250   1.0078250   1.0078250   1.0078250
 NucSpn=           1           1           1           1           1           1           1
 AtZEff=   0.0000000   0.0000000   0.0000000   0.0000000   0.0000000   0.0000000   0.0000000
 NQMom=    0.0000000   0.0000000   0.0000000   0.0000000   0.0000000   0.0000000   0.0000000
 NMagM=    2.7928460   2.7928460   2.7928460   2.7928460   2.7928460   2.7928460   2.7928460
 AtZNuc=   1.0000000   1.0000000   1.0000000   1.0000000   1.0000000   1.0000000   1.0000000
 Leave Link  101 at Fri Mar 20 17:33:10 2026, MaxMem=   536870912 cpu:         0.0
 (Enter C:\G09W\l103.exe)

 GradGradGradGradGradGradGradGradGradGradGradGradGradGradGradGradGradGrad
 Berny optimization.
 Initialization pass.
                           ----------------------------
                           !    Initial Parameters    !
                           ! (Angstroms and Degrees)  !
 --------------------------                            --------------------------
 ! Name  Definition              Value          Derivative Info.                !
 --------------------------------------------------------------------------------
 ! R1    R(1,2)                  1.5217         estimate D2E/DX2                !
 ! R2    R(1,10)                 1.0945         estimate D2E/DX2                !
 ! R3    R(1,11)                 1.0969         estimate D2E/DX2                !
 ! R4    R(1,12)                 1.0945         estimate D2E/DX2                !
 ! R5    R(2,3)                  1.2081         estimate D2E/DX2                !
 ! R6    R(2,4)                  1.4969         estimate D2E/DX2                !
 ! R7    R(4,5)                  1.3954         estimate D2E/DX2                !
 ! R8    R(4,9)                  1.3978         estimate D2E/DX2                !
 ! R9    R(5,6)                  1.3967         estimate D2E/DX2                !
 ! R10   R(5,13)                 1.0867         estimate D2E/DX2                !
 ! R11   R(6,7)                  1.395          estimate D2E/DX2                !
 ! R12   R(6,14)                 1.0871         estimate D2E/DX2                !
 ! R13   R(7,8)                  1.3958         estimate D2E/DX2                !
 ! R14   R(7,15)                 1.0867         estimate D2E/DX2                !
 ! R15   R(8,9)                  1.3952         estimate D2E/DX2                !
 ! R16   R(8,16)                 1.0879         estimate D2E/DX2                !
 ! R17   R(9,17)                 1.0902         estimate D2E/DX2                !
 ! A1    A(2,1,10)             110.2958         estimate D2E/DX2                !
 ! A2    A(2,1,11)             109.154          estimate D2E/DX2                !
 ! A3    A(2,1,12)             110.2958         estimate D2E/DX2                !
 ! A4    A(10,1,11)            108.0128         estimate D2E/DX2                !
 ! A5    A(10,1,12)            110.9932         estimate D2E/DX2                !
 ! A6    A(11,1,12)            108.0132         estimate D2E/DX2                !
 ! A7    A(1,2,3)              120.4255         estimate D2E/DX2                !
 ! A8    A(1,2,4)              118.4479         estimate D2E/DX2                !
 ! A9    A(3,2,4)              121.1266         estimate D2E/DX2                !
 ! A10   A(2,4,5)              122.4119         estimate D2E/DX2                !
 ! A11   A(2,4,9)              117.5293         estimate D2E/DX2                !
 ! A12   A(5,4,9)              120.0588         estimate D2E/DX2                !
 ! A13   A(4,5,6)              119.7745         estimate D2E/DX2                !
 ! A14   A(4,5,13)             122.0273         estimate D2E/DX2                !
 ! A15   A(6,5,13)             118.1982         estimate D2E/DX2                !
 ! A16   A(5,6,7)              120.2445         estimate D2E/DX2                !
 ! A17   A(5,6,14)             120.111          estimate D2E/DX2                !
 ! A18   A(7,6,14)             119.6445         estimate D2E/DX2                !
 ! A19   A(6,7,8)              119.9058         estimate D2E/DX2                !
 ! A20   A(6,7,15)             120.2278         estimate D2E/DX2                !
 ! A21   A(8,7,15)             119.8664         estimate D2E/DX2                !
 ! A22   A(7,8,9)              120.0133         estimate D2E/DX2                !
 ! A23   A(7,8,16)             120.1045         estimate D2E/DX2                !
 ! A24   A(9,8,16)             119.8822         estimate D2E/DX2                !
 ! A25   A(4,9,8)              120.003          estimate D2E/DX2                !
 ! A26   A(4,9,17)             120.6167         estimate D2E/DX2                !
 ! A27   A(8,9,17)             119.3803         estimate D2E/DX2                !
 ! D1    D(10,1,2,3)          -118.5226         estimate D2E/DX2                !
 ! D2    D(10,1,2,4)            61.4773         estimate D2E/DX2                !
 ! D3    D(11,1,2,3)            -0.002          estimate D2E/DX2                !
 ! D4    D(11,1,2,4)           179.9979         estimate D2E/DX2                !
 ! D5    D(12,1,2,3)           118.5191         estimate D2E/DX2                !
 ! D6    D(12,1,2,4)           -61.4811         estimate D2E/DX2                !
 ! D7    D(1,2,4,5)              0.0023         estimate D2E/DX2                !
 ! D8    D(1,2,4,9)           -179.9976         estimate D2E/DX2                !
 ! D9    D(3,2,4,5)           -179.9978         estimate D2E/DX2                !
 ! D10   D(3,2,4,9)              0.0023         estimate D2E/DX2                !
 ! D11   D(2,4,5,6)           -179.9997         estimate D2E/DX2                !
 ! D12   D(2,4,5,13)             0.0004         estimate D2E/DX2                !
 ! D13   D(9,4,5,6)              0.0002         estimate D2E/DX2                !
 ! D14   D(9,4,5,13)          -179.9997         estimate D2E/DX2                !
 ! D15   D(2,4,9,8)            179.9997         estimate D2E/DX2                !
 ! D16   D(2,4,9,17)            -0.0001         estimate D2E/DX2                !
 ! D17   D(5,4,9,8)             -0.0002         estimate D2E/DX2                !
 ! D18   D(5,4,9,17)           180.0            estimate D2E/DX2                !
 ! D19   D(4,5,6,7)             -0.0001         estimate D2E/DX2                !
 ! D20   D(4,5,6,14)          -180.0            estimate D2E/DX2                !
 ! D21   D(13,5,6,7)           179.9999         estimate D2E/DX2                !
 ! D22   D(13,5,6,14)           -0.0001         estimate D2E/DX2                !
 ! D23   D(5,6,7,8)             -0.0001         estimate D2E/DX2                !
 ! D24   D(5,6,7,15)           180.0            estimate D2E/DX2                !
 ! D25   D(14,6,7,8)           179.9998         estimate D2E/DX2                !
 ! D26   D(14,6,7,15)           -0.0001         estimate D2E/DX2                !
 ! D27   D(6,7,8,9)              0.0001         estimate D2E/DX2                !
 ! D28   D(6,7,8,16)          -180.0            estimate D2E/DX2                !
 ! D29   D(15,7,8,9)          -180.0            estimate D2E/DX2                !
 ! D30   D(15,7,8,16)           -0.0001         estimate D2E/DX2                !
 ! D31   D(7,8,9,4)              0.0            estimate D2E/DX2                !
 ! D32   D(7,8,9,17)           179.9999         estimate D2E/DX2                !
 ! D33   D(16,8,9,4)          -179.9999         estimate D2E/DX2                !
 ! D34   D(16,8,9,17)            0.0            estimate D2E/DX2                !
 --------------------------------------------------------------------------------
 Trust Radius=3.00D-01 FncErr=1.00D-07 GrdErr=1.00D-06
 Number of steps in this run=     88 maximum allowed number of steps=    102.
 GradGradGradGradGradGradGradGradGradGradGradGradGradGradGradGradGradGrad

 Leave Link  103 at Fri Mar 20 17:33:10 2026, MaxMem=   536870912 cpu:         0.0
 (Enter C:\G09W\l202.exe)
                          Input orientation:                          
 ---------------------------------------------------------------------
 Center     Atomic      Atomic             Coordinates (Angstroms)
 Number     Number       Type             X           Y           Z
 ---------------------------------------------------------------------
      1          6           0       -2.584073    0.774668    0.504299
      2          6           0       -1.698791   -0.462968    0.493855
      3          8           0       -2.170893   -1.554682    0.705551
      4          6           0       -0.237812   -0.292307    0.216195
      5          6           0        0.335667    0.955465   -0.031692
      6          6           0        1.705996    1.051117   -0.284553
      7          6           0        2.501186   -0.095009   -0.289938
      8          6           0        1.925929   -1.342295   -0.041791
      9          6           0        0.557447   -1.441791    0.211196
     10          1           0       -2.570877    1.259187   -0.477065
     11          1           0       -3.617114    0.476426    0.721485
     12          1           0       -2.259782    1.466821    1.287736
     13          1           0       -0.252231    1.869410   -0.035542
     14          1           0        2.158458    2.020387   -0.478343
     15          1           0        3.567328   -0.020274   -0.486706
     16          1           0        2.543032   -2.238214   -0.045208
     17          1           0        0.118936   -2.421169    0.403716
 ---------------------------------------------------------------------
                    Distance matrix (angstroms):
                    1          2          3          4          5
     1  C    0.000000
     2  C    1.521702   0.000000
     3  O    2.374256   1.208112   0.000000
     4  C    2.593527   1.496890   2.360056   0.000000
     5  C    2.974030   2.535187   3.623149   1.395443   0.000000
     6  C    4.370744   3.806698   4.775014   2.415352   1.396742
     7  C    5.219867   4.288302   4.994994   2.792348   2.420673
     8  C    5.011972   3.768120   4.169842   2.418844   2.794412
     9  C    3.855872   2.475601   2.775062   1.397775   2.419714
    10  H    1.094536   2.160796   3.078381   2.886336   2.956113
    11  H    1.096947   2.148078   2.493433   3.502278   4.052312
    12  H    1.094538   2.160797   3.078363   2.886363   2.956134
    13  H    2.631991   2.795136   3.994357   2.176373   1.086708
    14  H    5.000900   4.689413   5.738118   3.401918   2.157805
    15  H    6.281223   5.374894   6.058305   3.879067   3.406279
    16  H    5.972154   4.629811   4.822027   3.404112   3.882297
    17  H    4.186854   2.673351   2.466824   2.166676   3.411482
                    6          7          8          9         10
     6  C    0.000000
     7  C    1.394977   0.000000
     8  C    2.415725   1.395786   0.000000
     9  C    2.789179   2.417246   1.395222   0.000000
    10  H    4.286257   5.253064   5.213294   4.189916   0.000000
    11  H    5.447741   6.227609   5.883508   4.622436   1.773090
    12  H    4.286292   5.253112   5.213344   4.189957   1.804000
    13  H    2.136882   3.391897   3.880653   3.417676   2.437916
    14  H    1.087088   2.151246   3.398864   3.876258   4.790202
    15  H    2.157151   1.086721   2.154038   3.401053   6.270141
    16  H    3.402589   2.157538   1.087887   2.154665   6.210506
    17  H    3.879335   3.401072   2.151202   1.090200   4.642832
                   11         12         13         14         15
    11  H    0.000000
    12  H    1.773097   0.000000
    13  H    3.719668   2.437910   0.000000
    14  H    6.097593   4.790231   2.455665   0.000000
    15  H    7.302235   6.270192   4.285264   2.479775   0.000000
    16  H    6.775285   6.210559   4.968517   4.297812   2.482612
    17  H    4.738682   4.642872   4.328947   4.966397   4.295178
                   16         17
    16  H    0.000000
    17  H    2.472094   0.000000
 Stoichiometry    C8H8O
 Framework group  C1[X(C8H8O)]
 Deg. of freedom    45
 Full point group                 C1      NOp   1
 Largest Abelian subgroup         C1      NOp   1
 Largest concise Abelian subgroup C1      NOp   1
                         Standard orientation:                         
 ---------------------------------------------------------------------
 Center     Atomic      Atomic             Coordinates (Angstroms)
 Number     Number       Type             X           Y           Z
 ---------------------------------------------------------------------
      1          6           0        2.550494    1.044790    0.000033
      2          6           0        1.689925   -0.210199   -0.000006
      3          8           0        2.203081   -1.303911   -0.000032
      4          6           0        0.201211   -0.053960   -0.000006
      5          6           0       -0.419704    1.195731   -0.000020
      6          6           0       -1.814054    1.277443   -0.000014
      7          6           0       -2.585989    0.115515    0.000006
      8          6           0       -1.963284   -1.133668    0.000017
      9          6           0       -0.570690   -1.219268    0.000011
     10          1           0        2.360918    1.635102    0.902031
     11          1           0        3.608636    0.755609    0.000066
     12          1           0        2.360972    1.635120   -0.901968
     13          1           0        0.148941    2.121786   -0.000038
     14          1           0       -2.303471    2.248129   -0.000025
     15          1           0       -3.670830    0.179407    0.000012
     16          1           0       -2.562140   -2.041891    0.000032
     17          1           0       -0.095125   -2.200276    0.000021
 ---------------------------------------------------------------------
 Rotational constants (GHZ):      3.6933467      1.2194942      0.9222716
 Leave Link  202 at Fri Mar 20 17:33:11 2026, MaxMem=   536870912 cpu:         0.0
 (Enter C:\G09W\l301.exe)
 Standard basis: 6-31G(d) (6D, 7F)
 Ernie: Thresh=  0.10000D-02 Tol=  0.10000D-05 Strict=F.
 There are   151 symmetry adapted cartesian basis functions of A   symmetry.
 There are   151 symmetry adapted basis functions of A   symmetry.
   151 basis functions,   284 primitive gaussians,   151 cartesian basis functions
    32 alpha electrons       32 beta electrons
       nuclear repulsion energy       401.4780650080 Hartrees.
 IExCor=  402 DFT=T Ex+Corr=B3LYP ExCW=0 ScaHFX=  0.200000
 ScaDFX=  0.800000  0.720000  1.000000  0.810000 ScalE2=  1.000000  1.000000
 IRadAn=      0 IRanWt=     -1 IRanGd=            0 ICorTp=0 IEmpDi=  4
 NAtoms=   17 NActive=   17 NUniq=   17 SFac= 1.00D+00 NAtFMM=   60 NAOKFM=F Big=F
 Integral buffers will be    131072 words long.
 Raffenetti 2 integral format.
 Two-electron integral symmetry is turned on.
 Leave Link  301 at Fri Mar 20 17:33:11 2026, MaxMem=   536870912 cpu:         0.0
 (Enter C:\G09W\l302.exe)
 NPDir=0 NMtPBC=     1 NCelOv=     1 NCel=       1 NClECP=     1 NCelD=      1
         NCelK=      1 NCelE2=     1 NClLst=     1 CellRange=     0.0.
 One-electron integrals computed using PRISM.
 NBasis=   151 RedAO= T EigKep=  4.70D-04  NBF=   151
 NBsUse=   151 1.00D-06 EigRej= -1.00D+00 NBFU=   151
 Precomputing XC quadrature grid using
 IXCGrd= 4 IRadAn=           0 IRanWt=          -1 IRanGd=           0 AccXCQ= 0.00D+00.
 Generated NRdTot=       0 NPtTot=           0 NUsed=           0 NTot=          32
 NSgBfM=   151   151   151   151   151 MxSgAt=    17 MxSgA2=    17.
 Leave Link  302 at Fri Mar 20 17:33:11 2026, MaxMem=   536870912 cpu:         0.0
 (Enter C:\G09W\l303.exe)
 DipDrv:  MaxL=1.
 Leave Link  303 at Fri Mar 20 17:33:11 2026, MaxMem=   536870912 cpu:         0.0
 (Enter C:\G09W\l401.exe)
 ExpMin= 1.61D-01 ExpMax= 5.48D+03 ExpMxC= 8.25D+02 IAcc=1 IRadAn=         1 AccDes= 0.00D+00
 Harris functional with IExCor=  402 and IRadAn=       1 diagonalized for initial guess.
 HarFok:  IExCor=  402 AccDes= 0.00D+00 IRadAn=         1 IDoV= 1 UseB2=F ITyADJ=14
 ICtDFT=  3500011 ScaDFX=  1.000000  1.000000  1.000000  1.000000
 FoFCou: FMM=F IPFlag=           0 FMFlag=      100000 FMFlg1=           0
         NFxFlg=           0 DoJE=T BraDBF=F KetDBF=T FulRan=T
         wScrn=  0.000000 ICntrl=     500 IOpCl=  0 I1Cent=   200000004 NGrid=           0
         NMat0=    1 NMatS0=      1 NMatT0=    0 NMatD0=    1 NMtDS0=    0 NMtDT0=    0
 Petite list used in FoFCou.
 Harris En= -384.930726122965    
 JPrj=0 DoOrth=F DoCkMO=F.
 Leave Link  401 at Fri Mar 20 17:33:13 2026, MaxMem=   536870912 cpu:         1.0
 (Enter C:\G09W\l502.exe)
 Closed shell SCF:
 Using DIIS extrapolation, IDIIS=  1040.
 Integral symmetry usage will be decided dynamically.
 Keep R1 ints in memory in canonical form, NReq=67699856.
 IVT=       89002 IEndB=       89002 NGot=   536870912 MDV=   470926885
 LenX=   470926885 LenY=   470903643
 Requested convergence on RMS density matrix=1.00D-08 within 128 cycles.
 Requested convergence on MAX density matrix=1.00D-06.
 Requested convergence on             energy=1.00D-06.
 No special actions if energy rises.
 FoFCou: FMM=F IPFlag=           0 FMFlag=           0 FMFlg1=           0
         NFxFlg=           0 DoJE=F BraDBF=F KetDBF=F FulRan=T
         wScrn=  0.000000 ICntrl=     600 IOpCl=  0 I1Cent=           0 NGrid=           0
         NMat0=    1 NMatS0=  11476 NMatT0=    0 NMatD0=    1 NMtDS0=    0 NMtDT0=    0
 Symmetry not used in FoFCou.
 Integral accuracy reduced to 1.0D-05 until final iterations.

 Cycle   1  Pass 0  IDiag  1:
 E= -384.662352846700    
 DIIS: error= 4.57D-02 at cycle   1 NSaved=   1.
 NSaved= 1 IEnMin= 1 EnMin= -384.662352846700     IErMin= 1 ErrMin= 4.57D-02
 ErrMax= 4.57D-02  0.00D+00 EMaxC= 1.00D-01 BMatC= 2.35D-01 BMatP= 2.35D-01
 IDIUse=3 WtCom= 5.43D-01 WtEn= 4.57D-01
 Coeff-Com:  0.100D+01
 Coeff-En:   0.100D+01
 Coeff:      0.100D+01
 Gap=     0.183 Goal=   None    Shift=    0.000
 GapD=    0.183 DampG=1.000 DampE=0.500 DampFc=0.5000 IDamp=-1.
 Damping current iteration by 5.00D-01
 RMSDP=7.84D-03 MaxDP=1.82D-01              OVMax= 2.03D-01

 Cycle   2  Pass 0  IDiag  1:
 E= -384.756375315155     Delta-E=       -0.094022468455 Rises=F Damp=T
 DIIS: error= 1.28D-02 at cycle   2 NSaved=   2.
 NSaved= 2 IEnMin= 2 EnMin= -384.756375315155     IErMin= 2 ErrMin= 1.28D-02
 ErrMax= 1.28D-02  0.00D+00 EMaxC= 1.00D-01 BMatC= 2.40D-02 BMatP= 2.35D-01
 IDIUse=3 WtCom= 8.72D-01 WtEn= 1.28D-01
 Coeff-Com:  0.133D+00 0.867D+00
 Coeff-En:   0.175D+00 0.825D+00
 Coeff:      0.138D+00 0.862D+00
 Gap=     0.207 Goal=   None    Shift=    0.000
 RMSDP=2.23D-03 MaxDP=5.38D-02 DE=-9.40D-02 OVMax= 1.51D-01

 Cycle   3  Pass 0  IDiag  1:
 E= -384.868036677931     Delta-E=       -0.111661362776 Rises=F Damp=F
 DIIS: error= 2.27D-02 at cycle   3 NSaved=   3.
 NSaved= 3 IEnMin= 3 EnMin= -384.868036677931     IErMin= 2 ErrMin= 1.28D-02
 ErrMax= 2.27D-02  0.00D+00 EMaxC= 1.00D-01 BMatC= 3.16D-02 BMatP= 2.40D-02
 IDIUse=2 WtCom= 0.00D+00 WtEn= 1.00D+00
 Coeff-En:   0.000D+00 0.000D+00 0.100D+01
 Coeff:      0.000D+00 0.000D+00 0.100D+01
 Gap=     0.209 Goal=   None    Shift=    0.000
 RMSDP=3.82D-03 MaxDP=1.28D-01 DE=-1.12D-01 OVMax= 1.81D-01

 Cycle   4  Pass 0  IDiag  1:
 E= -384.750997173096     Delta-E=        0.117039504835 Rises=F Damp=F
 DIIS: error= 5.22D-02 at cycle   4 NSaved=   4.
 NSaved= 4 IEnMin= 3 EnMin= -384.868036677931     IErMin= 2 ErrMin= 1.28D-02
 ErrMax= 5.22D-02  0.00D+00 EMaxC= 1.00D-01 BMatC= 1.78D-01 BMatP= 2.40D-02
 IDIUse=2 WtCom= 0.00D+00 WtEn= 1.00D+00
 Coeff-En:   0.000D+00 0.000D+00 0.789D+00 0.211D+00
 Coeff:      0.000D+00 0.000D+00 0.789D+00 0.211D+00
 Gap=     0.182 Goal=   None    Shift=    0.000
 RMSDP=2.13D-03 MaxDP=6.60D-02 DE= 1.17D-01 OVMax= 1.00D-01

 Cycle   5  Pass 0  IDiag  1:
 E= -384.884542462542     Delta-E=       -0.133545289446 Rises=F Damp=F
 DIIS: error= 1.42D-02 at cycle   5 NSaved=   5.
 NSaved= 5 IEnMin= 5 EnMin= -384.884542462542     IErMin= 2 ErrMin= 1.28D-02
 ErrMax= 1.42D-02  0.00D+00 EMaxC= 1.00D-01 BMatC= 1.25D-02 BMatP= 2.40D-02
 IDIUse=3 WtCom= 8.58D-01 WtEn= 1.42D-01
 Coeff-Com: -0.634D-02 0.279D-01 0.273D+00-0.113D+00 0.818D+00
 Coeff-En:   0.000D+00 0.000D+00 0.325D+00 0.000D+00 0.675D+00
 Coeff:     -0.544D-02 0.239D-01 0.280D+00-0.967D-01 0.798D+00
 Gap=     0.194 Goal=   None    Shift=    0.000
 RMSDP=7.14D-04 MaxDP=2.40D-02 DE=-1.34D-01 OVMax= 3.43D-02

 Cycle   6  Pass 0  IDiag  1:
 E= -384.894791935148     Delta-E=       -0.010249472606 Rises=F Damp=F
 DIIS: error= 5.30D-04 at cycle   6 NSaved=   6.
 NSaved= 6 IEnMin= 6 EnMin= -384.894791935148     IErMin= 6 ErrMin= 5.30D-04
 ErrMax= 5.30D-04  0.00D+00 EMaxC= 1.00D-01 BMatC= 2.79D-05 BMatP= 1.25D-02
 IDIUse=3 WtCom= 9.95D-01 WtEn= 5.30D-03
 Coeff-Com: -0.376D-02 0.109D-01 0.113D+00-0.527D-01 0.381D+00 0.552D+00
 Coeff-En:   0.000D+00 0.000D+00 0.000D+00 0.000D+00 0.000D+00 0.100D+01
 Coeff:     -0.374D-02 0.108D-01 0.112D+00-0.524D-01 0.379D+00 0.554D+00
 Gap=     0.194 Goal=   None    Shift=    0.000
 RMSDP=4.50D-05 MaxDP=9.97D-04 DE=-1.02D-02 OVMax= 2.36D-03

 Cycle   7  Pass 0  IDiag  1:
 E= -384.894815115658     Delta-E=       -0.000023180510 Rises=F Damp=F
 DIIS: error= 1.46D-04 at cycle   7 NSaved=   7.
 NSaved= 7 IEnMin= 7 EnMin= -384.894815115658     IErMin= 7 ErrMin= 1.46D-04
 ErrMax= 1.46D-04  0.00D+00 EMaxC= 1.00D-01 BMatC= 2.90D-06 BMatP= 2.79D-05
 IDIUse=3 WtCom= 9.99D-01 WtEn= 1.46D-03
 Coeff-Com: -0.122D-02 0.243D-02 0.385D-01-0.183D-01 0.135D+00 0.333D+00
 Coeff-Com:  0.511D+00
 Coeff-En:   0.000D+00 0.000D+00 0.000D+00 0.000D+00 0.000D+00 0.987D-01
 Coeff-En:   0.901D+00
 Coeff:     -0.122D-02 0.242D-02 0.384D-01-0.182D-01 0.134D+00 0.332D+00
 Coeff:      0.512D+00
 Gap=     0.194 Goal=   None    Shift=    0.000
 RMSDP=1.31D-05 MaxDP=3.19D-04 DE=-2.32D-05 OVMax= 8.33D-04

 Cycle   8  Pass 0  IDiag  1:
 E= -384.894818036195     Delta-E=       -0.000002920537 Rises=F Damp=F
 DIIS: error= 2.98D-05 at cycle   8 NSaved=   8.
 NSaved= 8 IEnMin= 8 EnMin= -384.894818036195     IErMin= 8 ErrMin= 2.98D-05
 ErrMax= 2.98D-05  0.00D+00 EMaxC= 1.00D-01 BMatC= 2.20D-07 BMatP= 2.90D-06
 IDIUse=1 WtCom= 1.00D+00 WtEn= 0.00D+00
 Coeff-Com: -0.259D-03 0.148D-03 0.121D-01-0.534D-02 0.410D-01 0.141D+00
 Coeff-Com:  0.292D+00 0.519D+00
 Coeff:     -0.259D-03 0.148D-03 0.121D-01-0.534D-02 0.410D-01 0.141D+00
 Coeff:      0.292D+00 0.519D+00
 Gap=     0.194 Goal=   None    Shift=    0.000
 RMSDP=3.37D-06 MaxDP=8.51D-05 DE=-2.92D-06 OVMax= 1.87D-04

 Initial convergence to 1.0D-05 achieved.  Increase integral accuracy.
 Cycle   9  Pass 1  IDiag  1:
 E= -384.894858853370     Delta-E=       -0.000040817175 Rises=F Damp=F
 DIIS: error= 1.80D-05 at cycle   1 NSaved=   1.
 NSaved= 1 IEnMin= 1 EnMin= -384.894858853370     IErMin= 1 ErrMin= 1.80D-05
 ErrMax= 1.80D-05  0.00D+00 EMaxC= 1.00D-01 BMatC= 5.11D-08 BMatP= 5.11D-08
 IDIUse=1 WtCom= 1.00D+00 WtEn= 0.00D+00
 Coeff-Com:  0.100D+01
 Coeff:      0.100D+01
 Gap=     0.194 Goal=   None    Shift=    0.000
 RMSDP=3.37D-06 MaxDP=8.51D-05 DE=-4.08D-05 OVMax= 1.03D-04

 Cycle  10  Pass 1  IDiag  1:
 E= -384.894858891021     Delta-E=       -0.000000037650 Rises=F Damp=F
 DIIS: error= 1.67D-05 at cycle   2 NSaved=   2.
 NSaved= 2 IEnMin= 2 EnMin= -384.894858891021     IErMin= 2 ErrMin= 1.67D-05
 ErrMax= 1.67D-05  0.00D+00 EMaxC= 1.00D-01 BMatC= 3.12D-08 BMatP= 5.11D-08
 IDIUse=1 WtCom= 1.00D+00 WtEn= 0.00D+00
 Coeff-Com:  0.412D+00 0.588D+00
 Coeff:      0.412D+00 0.588D+00
 Gap=     0.194 Goal=   None    Shift=    0.000
 RMSDP=1.98D-06 MaxDP=4.89D-05 DE=-3.77D-08 OVMax= 9.25D-05

 Cycle  11  Pass 1  IDiag  1:
 E= -384.894858903260     Delta-E=       -0.000000012239 Rises=F Damp=F
 DIIS: error= 1.35D-05 at cycle   3 NSaved=   3.
 NSaved= 3 IEnMin= 3 EnMin= -384.894858903260     IErMin= 3 ErrMin= 1.35D-05
 ErrMax= 1.35D-05  0.00D+00 EMaxC= 1.00D-01 BMatC= 1.84D-08 BMatP= 3.12D-08
 IDIUse=1 WtCom= 1.00D+00 WtEn= 0.00D+00
 Coeff-Com:  0.854D-02 0.431D+00 0.561D+00
 Coeff:      0.854D-02 0.431D+00 0.561D+00
 Gap=     0.194 Goal=   None    Shift=    0.000
 RMSDP=1.08D-06 MaxDP=2.94D-05 DE=-1.22D-08 OVMax= 4.61D-05

 Cycle  12  Pass 1  IDiag  1:
 E= -384.894858919173     Delta-E=       -0.000000015914 Rises=F Damp=F
 DIIS: error= 3.59D-06 at cycle   4 NSaved=   4.
 NSaved= 4 IEnMin= 4 EnMin= -384.894858919173     IErMin= 4 ErrMin= 3.59D-06
 ErrMax= 3.59D-06  0.00D+00 EMaxC= 1.00D-01 BMatC= 1.47D-09 BMatP= 1.84D-08
 IDIUse=1 WtCom= 1.00D+00 WtEn= 0.00D+00
 Coeff-Com: -0.168D-01 0.233D+00 0.354D+00 0.429D+00
 Coeff:     -0.168D-01 0.233D+00 0.354D+00 0.429D+00
 Gap=     0.194 Goal=   None    Shift=    0.000
 RMSDP=2.52D-07 MaxDP=6.53D-06 DE=-1.59D-08 OVMax= 9.35D-06

 Cycle  13  Pass 1  IDiag  1:
 E= -384.894858920432     Delta-E=       -0.000000001258 Rises=F Damp=F
 DIIS: error= 5.32D-07 at cycle   5 NSaved=   5.
 NSaved= 5 IEnMin= 5 EnMin= -384.894858920432     IErMin= 5 ErrMin= 5.32D-07
 ErrMax= 5.32D-07  0.00D+00 EMaxC= 1.00D-01 BMatC= 3.85D-11 BMatP= 1.47D-09
 IDIUse=1 WtCom= 1.00D+00 WtEn= 0.00D+00
 Coeff-Com: -0.907D-02 0.919D-01 0.150D+00 0.212D+00 0.555D+00
 Coeff:     -0.907D-02 0.919D-01 0.150D+00 0.212D+00 0.555D+00
 Gap=     0.194 Goal=   None    Shift=    0.000
 RMSDP=5.32D-08 MaxDP=1.15D-06 DE=-1.26D-09 OVMax= 2.80D-06

 Cycle  14  Pass 1  IDiag  1:
 E= -384.894858920455     Delta-E=       -0.000000000023 Rises=F Damp=F
 DIIS: error= 1.96D-07 at cycle   6 NSaved=   6.
 NSaved= 6 IEnMin= 6 EnMin= -384.894858920455     IErMin= 6 ErrMin= 1.96D-07
 ErrMax= 1.96D-07  0.00D+00 EMaxC= 1.00D-01 BMatC= 6.01D-12 BMatP= 3.85D-11
 IDIUse=1 WtCom= 1.00D+00 WtEn= 0.00D+00
 Coeff-Com: -0.382D-02 0.344D-01 0.593D-01 0.878D-01 0.334D+00 0.488D+00
 Coeff:     -0.382D-02 0.344D-01 0.593D-01 0.878D-01 0.334D+00 0.488D+00
 Gap=     0.194 Goal=   None    Shift=    0.000
 RMSDP=2.09D-08 MaxDP=4.58D-07 DE=-2.32D-11 OVMax= 1.23D-06

 Cycle  15  Pass 1  IDiag  1:
 E= -384.894858920462     Delta-E=       -0.000000000008 Rises=F Damp=F
 DIIS: error= 5.82D-08 at cycle   7 NSaved=   7.
 NSaved= 7 IEnMin= 7 EnMin= -384.894858920462     IErMin= 7 ErrMin= 5.82D-08
 ErrMax= 5.82D-08  0.00D+00 EMaxC= 1.00D-01 BMatC= 3.39D-13 BMatP= 6.01D-12
 IDIUse=1 WtCom= 1.00D+00 WtEn= 0.00D+00
 Coeff-Com: -0.691D-03 0.494D-02 0.966D-02 0.149D-01 0.877D-01 0.237D+00
 Coeff-Com:  0.646D+00
 Coeff:     -0.691D-03 0.494D-02 0.966D-02 0.149D-01 0.877D-01 0.237D+00
 Coeff:      0.646D+00
 Gap=     0.194 Goal=   None    Shift=    0.000
 RMSDP=6.51D-09 MaxDP=1.34D-07 DE=-7.50D-12 OVMax= 3.69D-07

 SCF Done:  E(RB3LYP) =  -384.894858920     A.U. after   15 cycles
            NFock= 15  Conv=0.65D-08     -V/T= 2.0094
 KE= 3.812961884347D+02 PE=-1.697036036677D+03 EE= 5.293669243142D+02
 Leave Link  502 at Fri Mar 20 17:33:32 2026, MaxMem=   536870912 cpu:        19.0
 (Enter C:\G09W\l601.exe)
 Copying SCF densities to generalized density rwf, IOpCl= 0 IROHF=0.

 **********************************************************************

            Population analysis using the SCF density.

 **********************************************************************

 Orbital symmetries:
       Occupied  (A) (A) (A) (A) (A) (A) (A) (A) (A) (A) (A) (A)
                 (A) (A) (A) (A) (A) (A) (A) (A) (A) (A) (A) (A)
                 (A) (A) (A) (A) (A) (A) (A) (A)
       Virtual   (A) (A) (A) (A) (A) (A) (A) (A) (A) (A) (A) (A)
                 (A) (A) (A) (A) (A) (A) (A) (A) (A) (A) (A) (A)
                 (A) (A) (A) (A) (A) (A) (A) (A) (A) (A) (A) (A)
                 (A) (A) (A) (A) (A) (A) (A) (A) (A) (A) (A) (A)
                 (A) (A) (A) (A) (A) (A) (A) (A) (A) (A) (A) (A)
                 (A) (A) (A) (A) (A) (A) (A) (A) (A) (A) (A) (A)
                 (A) (A) (A) (A) (A) (A) (A) (A) (A) (A) (A) (A)
                 (A) (A) (A) (A) (A) (A) (A) (A) (A) (A) (A) (A)
                 (A) (A) (A) (A) (A) (A) (A) (A) (A) (A) (A) (A)
                 (A) (A) (A) (A) (A) (A) (A) (A) (A) (A) (A)
 The electronic state is 1-A.
 Alpha  occ. eigenvalues --  -19.13310 -10.27257 -10.20393 -10.20238 -10.20003
 Alpha  occ. eigenvalues --  -10.19994 -10.19798 -10.19685 -10.18748  -1.04029
 Alpha  occ. eigenvalues --   -0.86340  -0.77372  -0.75361  -0.72964  -0.63006
 Alpha  occ. eigenvalues --   -0.61050  -0.55342  -0.51079  -0.46675  -0.45824
 Alpha  occ. eigenvalues --   -0.44842  -0.44701  -0.42909  -0.41257  -0.38855
 Alpha  occ. eigenvalues --   -0.38135  -0.35871  -0.35346  -0.35083  -0.26140
 Alpha  occ. eigenvalues --   -0.25755  -0.24546
 Alpha virt. eigenvalues --   -0.05138  -0.00911   0.04414   0.08544   0.11249
 Alpha virt. eigenvalues --    0.14139   0.15175   0.15692   0.16110   0.18002
 Alpha virt. eigenvalues --    0.18468   0.19286   0.22391   0.27124   0.29081
 Alpha virt. eigenvalues --    0.30336   0.31695   0.34935   0.37153   0.47996
 Alpha virt. eigenvalues --    0.50982   0.52021   0.53045   0.54219   0.55631
 Alpha virt. eigenvalues --    0.56701   0.58463   0.58554   0.60032   0.60072
 Alpha virt. eigenvalues --    0.60783   0.61488   0.64711   0.66697   0.67067
 Alpha virt. eigenvalues --    0.71177   0.72956   0.75335   0.76905   0.81765
 Alpha virt. eigenvalues --    0.82156   0.82847   0.84182   0.85669   0.87854
 Alpha virt. eigenvalues --    0.89444   0.90235   0.92911   0.94029   0.95919
 Alpha virt. eigenvalues --    0.98442   1.02795   1.02861   1.06140   1.08881
 Alpha virt. eigenvalues --    1.13278   1.15983   1.18492   1.24547   1.28649
 Alpha virt. eigenvalues --    1.31147   1.32451   1.42582   1.42622   1.42763
 Alpha virt. eigenvalues --    1.45000   1.45846   1.47915   1.48280   1.50296
 Alpha virt. eigenvalues --    1.66823   1.68735   1.75758   1.76829   1.80432
 Alpha virt. eigenvalues --    1.83406   1.86400   1.88236   1.91055   1.93626
 Alpha virt. eigenvalues --    1.96932   1.99432   2.03310   2.04722   2.07086
 Alpha virt. eigenvalues --    2.13764   2.14331   2.14959   2.17982   2.24916
 Alpha virt. eigenvalues --    2.27170   2.28351   2.28949   2.29715   2.40002
 Alpha virt. eigenvalues --    2.43370   2.51796   2.58497   2.59868   2.60001
 Alpha virt. eigenvalues --    2.65998   2.67507   2.73683   2.74491   2.78008
 Alpha virt. eigenvalues --    2.87048   2.98764   2.98937   3.15952   3.42005
 Alpha virt. eigenvalues --    3.97207   4.07817   4.10385   4.12896   4.22949
 Alpha virt. eigenvalues --    4.31175   4.34060   4.49736   4.71081
          Condensed to atoms (all electrons):
               1          2          3          4          5          6
     1  C    5.396561   0.316497  -0.095608  -0.129148  -0.010652  -0.000135
     2  C    0.316497   4.545484   0.597036   0.271519  -0.042282   0.004470
     3  O   -0.095608   0.597036   8.001629  -0.091707   0.004504  -0.000067
     4  C   -0.129148   0.271519  -0.091707   5.018780   0.504836  -0.011246
     5  C   -0.010652  -0.042282   0.004504   0.504836   5.039177   0.518264
     6  C   -0.000135   0.004470  -0.000067  -0.011246   0.518264   4.865840
     7  C   -0.000021   0.000147  -0.000021  -0.036441  -0.036021   0.550597
     8  C   -0.000105   0.006931   0.001205  -0.020510  -0.039926  -0.026716
     9  C    0.011434  -0.027819   0.001510   0.483148  -0.084906  -0.040901
    10  H    0.348020  -0.017679   0.001554   0.002350   0.000544   0.000098
    11  H    0.349803  -0.019697   0.006192   0.005266   0.000152   0.000000
    12  H    0.348020  -0.017678   0.001554   0.002350   0.000543   0.000098
    13  H    0.008053  -0.012097   0.000058  -0.037992   0.354413  -0.045679
    14  H    0.000010  -0.000114   0.000000   0.003570  -0.039387   0.358510
    15  H    0.000000   0.000008   0.000000   0.000626   0.004852  -0.042684
    16  H    0.000002  -0.000143   0.000004   0.003512   0.000817   0.004645
    17  H    0.000723  -0.009302   0.015645  -0.042458   0.005459   0.000291
               7          8          9         10         11         12
     1  C   -0.000021  -0.000105   0.011434   0.348020   0.349803   0.348020
     2  C    0.000147   0.006931  -0.027819  -0.017679  -0.019697  -0.017678
     3  O   -0.000021   0.001205   0.001510   0.001554   0.006192   0.001554
     4  C   -0.036441  -0.020510   0.483148   0.002350   0.005266   0.002350
     5  C   -0.036021  -0.039926  -0.084906   0.000544   0.000152   0.000543
     6  C    0.550597  -0.026716  -0.040901   0.000098   0.000000   0.000098
     7  C    4.850305   0.537054  -0.031243   0.000003   0.000000   0.000003
     8  C    0.537054   4.909678   0.486892  -0.000006   0.000002  -0.000006
     9  C   -0.031243   0.486892   5.031293  -0.000377  -0.000139  -0.000377
    10  H    0.000003  -0.000006  -0.000377   0.542309  -0.022949  -0.024820
    11  H    0.000000   0.000002  -0.000139  -0.022949   0.525816  -0.022948
    12  H    0.000003  -0.000006  -0.000377  -0.024820  -0.022948   0.542307
    13  H    0.004717   0.000305   0.005436   0.001138  -0.000084   0.001138
    14  H   -0.042904   0.004663   0.000781  -0.000005   0.000000  -0.000005
    15  H    0.359892  -0.042989   0.004489   0.000000   0.000000   0.000000
    16  H   -0.043632   0.360117  -0.039900   0.000000   0.000000   0.000000
    17  H    0.004373  -0.043686   0.356953  -0.000020  -0.000016  -0.000020
              13         14         15         16         17
     1  C    0.008053   0.000010   0.000000   0.000002   0.000723
     2  C   -0.012097  -0.000114   0.000008  -0.000143  -0.009302
     3  O    0.000058   0.000000   0.000000   0.000004   0.015645
     4  C   -0.037992   0.003570   0.000626   0.003512  -0.042458
     5  C    0.354413  -0.039387   0.004852   0.000817   0.005459
     6  C   -0.045679   0.358510  -0.042684   0.004645   0.000291
     7  C    0.004717  -0.042904   0.359892  -0.043632   0.004373
     8  C    0.000305   0.004663  -0.042989   0.360117  -0.043686
     9  C    0.005436   0.000781   0.004489  -0.039900   0.356953
    10  H    0.001138  -0.000005   0.000000   0.000000  -0.000020
    11  H   -0.000084   0.000000   0.000000   0.000000  -0.000016
    12  H    0.001138  -0.000005   0.000000   0.000000  -0.000020
    13  H    0.588150  -0.005367  -0.000179   0.000017  -0.000137
    14  H   -0.005367   0.591045  -0.005566  -0.000178   0.000016
    15  H   -0.000179  -0.005566   0.590047  -0.005468  -0.000163
    16  H    0.000017  -0.000178  -0.005468   0.587446  -0.004708
    17  H   -0.000137   0.000016  -0.000163  -0.004708   0.552532
 Mulliken charges:
               1
     1  C   -0.543454
     2  C    0.404716
     3  O   -0.443487
     4  C    0.073544
     5  C   -0.180386
     6  C   -0.135385
     7  C   -0.116809
     8  C   -0.132902
     9  C   -0.156276
    10  H    0.169839
    11  H    0.178602
    12  H    0.169840
    13  H    0.138110
    14  H    0.134927
    15  H    0.137134
    16  H    0.137469
    17  H    0.164518
 Sum of Mulliken charges =   0.00000
 Mulliken charges with hydrogens summed into heavy atoms:
               1
     1  C   -0.025172
     2  C    0.404716
     3  O   -0.443487
     4  C    0.073544
     5  C   -0.042276
     6  C   -0.000458
     7  C    0.020325
     8  C    0.004567
     9  C    0.008242
 Electronic spatial extent (au):  <R**2>=           1230.6128
 Charge=              0.0000 electrons
 Dipole moment (field-independent basis, Debye):
    X=             -1.8562    Y=              2.2673    Z=              0.0001  Tot=              2.9302
 Quadrupole moment (field-independent basis, Debye-Ang):
   XX=            -50.4368   YY=            -50.0719   ZZ=            -53.9516
   XY=              6.0099   XZ=              0.0001   YZ=             -0.0002
 Traceless Quadrupole moment (field-independent basis, Debye-Ang):
   XX=              1.0500   YY=              1.4149   ZZ=             -2.4648
   XY=              6.0099   XZ=              0.0001   YZ=             -0.0002
 Octapole moment (field-independent basis, Debye-Ang**2):
  XXX=            -13.7550  YYY=             -0.6403  ZZZ=             -0.0001  XYY=             -8.9093
  XXY=             11.8906  XXZ=              0.0005  XZZ=              9.0929  YZZ=             -1.1690
  YYZ=              0.0000  XYZ=             -0.0001
 Hexadecapole moment (field-independent basis, Debye-Ang**3):
 XXXX=          -1087.9522 YYYY=           -402.4968 ZZZZ=            -60.0190 XXXY=             21.0169
 XXXZ=              0.0006 YYYX=             -0.1166 YYYZ=             -0.0008 ZZZX=             -0.0003
 ZZZY=              0.0003 XXYY=           -264.8270 XXZZ=           -207.6293 YYZZ=            -83.1504
 XXYZ=             -0.0009 YYXZ=              0.0000 ZZXY=             -1.6828
 N-N= 4.014780650080D+02 E-N=-1.697036042276D+03  KE= 3.812961884347D+02
 No NMR shielding tensors so no spin-rotation constants.
 Leave Link  601 at Fri Mar 20 17:33:33 2026, MaxMem=   536870912 cpu:         1.0
 (Enter C:\G09W\l701.exe)
 Compute integral first derivatives.
 ... and contract with generalized density number  0.
 Leave Link  701 at Fri Mar 20 17:33:33 2026, MaxMem=   536870912 cpu:         0.0
 (Enter C:\G09W\l702.exe)
 L702 exits ... SP integral derivatives will be done elsewhere.
 Leave Link  702 at Fri Mar 20 17:33:33 2026, MaxMem=   536870912 cpu:         0.0
 (Enter C:\G09W\l703.exe)
 Compute integral first derivatives, UseDBF=F ICtDFT=           0.
 Integral derivatives from FoFJK, PRISM(SPDF).
 Calling FoFJK, ICntrl=      2127 FMM=F ISym2X=0 I1Cent= 0 IOpClX= 0 NMat=1 NMatS=1 NMatT=0.
 FoFJK:  IHMeth= 1 ICntrl=    2127 DoSepK=F KAlg= 0 I1Cent=   0 FoldK=F
 IRaf=         0 NMat=   1 IRICut=       1 DoRegI=T DoRafI=F ISym2E= 0.
 FoFCou: FMM=F IPFlag=           0 FMFlag=      100000 FMFlg1=         800
         NFxFlg=           0 DoJE=F BraDBF=F KetDBF=F FulRan=T
         wScrn=  0.000000 ICntrl=    2127 IOpCl=  0 I1Cent=           0 NGrid=           0
         NMat0=    1 NMatS0=      1 NMatT0=    0 NMatD0=    1 NMtDS0=    0 NMtDT0=    0
 Symmetry not used in FoFCou.
 Leave Link  703 at Fri Mar 20 17:33:39 2026, MaxMem=   536870912 cpu:         6.0
 (Enter C:\G09W\l716.exe)
 Dipole        =-7.30282015D-01 8.92007720D-01 2.48276258D-05
 ***** Axes restored to original set *****
 -------------------------------------------------------------------
 Center     Atomic                   Forces (Hartrees/Bohr)
 Number     Number              X              Y              Z
 -------------------------------------------------------------------
      1        6          -0.006539635   -0.004904629    0.001730375
      2        6           0.002438508    0.018023901   -0.002550611
      3        8          -0.007443672   -0.020388700    0.003711318
      4        6          -0.008576369   -0.003129572    0.001880285
      5        6           0.008974716    0.005390894   -0.002216706
      6        6           0.000631474    0.001360002   -0.000271125
      7        6           0.000801256    0.000019112   -0.000143373
      8        6          -0.002416951   -0.001946817    0.000655035
      9        6           0.010857254   -0.006357170   -0.001166478
     10        1           0.002028802    0.004672121    0.001421206
     11        1           0.003515970   -0.001251173   -0.000471858
     12        1           0.001242214    0.004146485   -0.003036557
     13        1          -0.001879588   -0.002435322    0.000617721
     14        1          -0.000781557    0.000141960    0.000121093
     15        1           0.000073642    0.000585547   -0.000081898
     16        1          -0.000428129    0.000666247   -0.000002870
     17        1          -0.002497935    0.005407114   -0.000195559
 -------------------------------------------------------------------
 Cartesian Forces:  Max     0.020388700 RMS     0.005207790
 Leave Link  716 at Fri Mar 20 17:33:39 2026, MaxMem=   536870912 cpu:         0.0
 (Enter C:\G09W\l103.exe)

 GradGradGradGradGradGradGradGradGradGradGradGradGradGradGradGradGradGrad
 Berny optimization.
 FormGI is forming the generalized inverse of G from B-inverse, IUseBI=4.
 Internal  Forces:  Max     0.021985568 RMS     0.003161199
 Search for a local minimum.
 Step number   1 out of a maximum of   88
 All quantities printed in internal units (Hartrees-Bohrs-Radians)
 RMS Force = .31612D-02 SwitMx=.10000D-02 MixMth= 1
 Mixed Optimization -- RFO/linear search
 Second derivative matrix not updated -- first step.
 ITU=  0
     Eigenvalues ---    0.00479   0.00611   0.00807   0.01727   0.02130
     Eigenvalues ---    0.02136   0.02140   0.02143   0.02144   0.02148
     Eigenvalues ---    0.02150   0.02151   0.07134   0.07433   0.16000
     Eigenvalues ---    0.16000   0.16000   0.16000   0.16000   0.16000
     Eigenvalues ---    0.16000   0.16000   0.22000   0.22000   0.23486
     Eigenvalues ---    0.25000   0.25000   0.25000   0.30203   0.32706
     Eigenvalues ---    0.34022   0.34293   0.34294   0.34789   0.35058
     Eigenvalues ---    0.35151   0.35194   0.35196   0.41970   0.42180
     Eigenvalues ---    0.46112   0.46283   0.46354   0.46429   1.00850
 RFO step:  Lambda=-1.93648721D-03 EMin= 4.78875110D-03
 Linear search not attempted -- first point.
 Iteration  1 RMS(Cart)=  0.01241640 RMS(Int)=  0.00013331
 Iteration  2 RMS(Cart)=  0.00014211 RMS(Int)=  0.00000974
 Iteration  3 RMS(Cart)=  0.00000001 RMS(Int)=  0.00000974
 ITry= 1 IFail=0 DXMaxC= 4.26D-02 DCOld= 1.00D+10 DXMaxT= 3.00D-01 DXLimC= 3.00D+00 Rises=F
 Variable       Old X    -DE/DX   Delta X   Delta X   Delta X     New X
                                 (Linear)    (Quad)   (Total)
    R1        2.87560   0.00201   0.00000   0.00661   0.00661   2.88221
    R2        2.06837   0.00082   0.00000   0.00237   0.00237   2.07074
    R3        2.07293  -0.00306   0.00000  -0.00895  -0.00895   2.06398
    R4        2.06838   0.00081   0.00000   0.00236   0.00236   2.07074
    R5        2.28300   0.02199   0.00000   0.02176   0.02176   2.30476
    R6        2.82871   0.00476   0.00000   0.01448   0.01448   2.84319
    R7        2.63701   0.00581   0.00000   0.01272   0.01273   2.64974
    R8        2.64141   0.00406   0.00000   0.00894   0.00895   2.65037
    R9        2.63946  -0.00045   0.00000  -0.00088  -0.00088   2.63858
   R10        2.05358  -0.00103   0.00000  -0.00292  -0.00292   2.05066
   R11        2.63612   0.00091   0.00000   0.00179   0.00178   2.63791
   R12        2.05430  -0.00022   0.00000  -0.00062  -0.00062   2.05368
   R13        2.63765   0.00230   0.00000   0.00468   0.00467   2.64232
   R14        2.05360   0.00013   0.00000   0.00036   0.00036   2.05397
   R15        2.63659  -0.00162   0.00000  -0.00357  -0.00357   2.63302
   R16        2.05581  -0.00079   0.00000  -0.00225  -0.00225   2.05356
   R17        2.06018  -0.00389   0.00000  -0.01112  -0.01112   2.04906
    A1        1.92502   0.00285   0.00000   0.01356   0.01359   1.93861
    A2        1.90510  -0.00307   0.00000  -0.01104  -0.01104   1.89405
    A3        1.92502   0.00285   0.00000   0.01356   0.01358   1.93861
    A4        1.88518   0.00147   0.00000   0.01699   0.01699   1.90217
    A5        1.93720  -0.00563   0.00000  -0.04954  -0.04950   1.88769
    A6        1.88519   0.00146   0.00000   0.01698   0.01698   1.90216
    A7        2.10182   0.00144   0.00000   0.00571   0.00571   2.10753
    A8        2.06731   0.00003   0.00000   0.00011   0.00011   2.06742
    A9        2.11406  -0.00147   0.00000  -0.00582  -0.00582   2.10824
   A10        2.13649   0.00170   0.00000   0.00653   0.00652   2.14301
   A11        2.05127   0.00255   0.00000   0.00991   0.00990   2.06117
   A12        2.09542  -0.00426   0.00000  -0.01645  -0.01642   2.07900
   A13        2.09046   0.00233   0.00000   0.01087   0.01089   2.10135
   A14        2.12978  -0.00421   0.00000  -0.02424  -0.02424   2.10553
   A15        2.06295   0.00188   0.00000   0.01336   0.01336   2.07631
   A16        2.09866  -0.00062   0.00000  -0.00329  -0.00330   2.09536
   A17        2.09633  -0.00049   0.00000  -0.00329  -0.00328   2.09305
   A18        2.08819   0.00111   0.00000   0.00657   0.00658   2.09477
   A19        2.09275   0.00025   0.00000  -0.00010  -0.00013   2.09262
   A20        2.09837  -0.00073   0.00000  -0.00367  -0.00366   2.09471
   A21        2.09206   0.00048   0.00000   0.00378   0.00379   2.09585
   A22        2.09463   0.00030   0.00000   0.00021   0.00020   2.09483
   A23        2.09622  -0.00018   0.00000  -0.00030  -0.00030   2.09592
   A24        2.09234  -0.00012   0.00000   0.00009   0.00010   2.09244
   A25        2.09445   0.00200   0.00000   0.00875   0.00876   2.10321
   A26        2.10516  -0.00565   0.00000  -0.03309  -0.03309   2.07207
   A27        2.08358   0.00365   0.00000   0.02434   0.02433   2.10791
    D1       -2.06861  -0.00162   0.00000  -0.02210  -0.02212  -2.09073
    D2        1.07298  -0.00162   0.00000  -0.02209  -0.02211   1.05087
    D3       -0.00003   0.00000   0.00000   0.00001   0.00001  -0.00003
    D4        3.14156   0.00000   0.00000   0.00002   0.00002   3.14157
    D5        2.06855   0.00162   0.00000   0.02210   0.02212   2.09067
    D6       -1.07305   0.00162   0.00000   0.02211   0.02213  -1.05092
    D7        0.00004   0.00000   0.00000  -0.00002  -0.00002   0.00002
    D8       -3.14155   0.00000   0.00000  -0.00002  -0.00002  -3.14157
    D9       -3.14155   0.00000   0.00000  -0.00001  -0.00001  -3.14157
   D10        0.00004   0.00000   0.00000  -0.00002  -0.00002   0.00002
   D11       -3.14159   0.00000   0.00000  -0.00001  -0.00001   3.14159
   D12        0.00001   0.00000   0.00000  -0.00001  -0.00001   0.00000
   D13        0.00000   0.00000   0.00000   0.00000   0.00000   0.00000
   D14       -3.14159   0.00000   0.00000   0.00000   0.00000  -3.14159
   D15        3.14159   0.00000   0.00000   0.00001   0.00001  -3.14159
   D16        0.00000   0.00000   0.00000   0.00000   0.00000   0.00000
   D17        0.00000   0.00000   0.00000   0.00000   0.00000   0.00000
   D18        3.14159   0.00000   0.00000   0.00000   0.00000   3.14159
   D19        0.00000   0.00000   0.00000   0.00000   0.00000   0.00000
   D20        3.14159   0.00000   0.00000   0.00000   0.00000  -3.14159
   D21        3.14159   0.00000   0.00000   0.00000   0.00000   3.14159
   D22        0.00000   0.00000   0.00000   0.00000   0.00000   0.00000
   D23        0.00000   0.00000   0.00000   0.00000   0.00000   0.00000
   D24        3.14159   0.00000   0.00000   0.00000   0.00000   3.14159
   D25        3.14159   0.00000   0.00000   0.00000   0.00000   3.14159
   D26        0.00000   0.00000   0.00000   0.00000   0.00000   0.00000
   D27        0.00000   0.00000   0.00000   0.00000   0.00000   0.00000
   D28       -3.14159   0.00000   0.00000   0.00000   0.00000  -3.14159
   D29       -3.14159   0.00000   0.00000   0.00000   0.00000   3.14159
   D30        0.00000   0.00000   0.00000   0.00000   0.00000   0.00000
   D31        0.00000   0.00000   0.00000   0.00000   0.00000   0.00000
   D32        3.14159   0.00000   0.00000   0.00000   0.00000  -3.14159
   D33       -3.14159   0.00000   0.00000   0.00000   0.00000  -3.14159
   D34        0.00000   0.00000   0.00000   0.00000   0.00000   0.00000
         Item               Value     Threshold  Converged?
 Maximum Force            0.021986     0.000450     NO 
 RMS     Force            0.003161     0.000300     NO 
 Maximum Displacement     0.042609     0.001800     NO 
 RMS     Displacement     0.012447     0.001200     NO 
 Predicted change in Energy=-9.780642D-04
 Lowest energy point so far.  Saving SCF results.
 GradGradGradGradGradGradGradGradGradGradGradGradGradGradGradGradGradGrad

 Leave Link  103 at Fri Mar 20 17:33:39 2026, MaxMem=   536870912 cpu:         0.0
 (Enter C:\G09W\l202.exe)
                          Input orientation:                          
 ---------------------------------------------------------------------
 Center     Atomic      Atomic             Coordinates (Angstroms)
 Number     Number       Type             X           Y           Z
 ---------------------------------------------------------------------
      1          6           0       -2.595370    0.773883    0.506392
      2          6           0       -1.709298   -0.467489    0.496226
      3          8           0       -2.180730   -1.571954    0.709294
      4          6           0       -0.240613   -0.297638    0.217304
      5          6           0        0.345225    0.951478   -0.032924
      6          6           0        1.714697    1.051571   -0.286145
      7          6           0        2.510350   -0.095380   -0.291503
      8          6           0        1.933831   -1.344754   -0.042888
      9          6           0        0.567199   -1.444123    0.209749
     10          1           0       -2.573243    1.281735   -0.464355
     11          1           0       -3.620737    0.466490    0.723313
     12          1           0       -2.267170    1.485982    1.271866
     13          1           0       -0.256578    1.854482   -0.033045
     14          1           0        2.160696    2.023627   -0.479124
     15          1           0        3.576330   -0.016761   -0.488692
     16          1           0        2.550348   -2.239631   -0.046316
     17          1           0        0.107469   -2.406746    0.404043
 ---------------------------------------------------------------------
                    Distance matrix (angstroms):
                    1          2          3          4          5
     1  C    0.000000
     2  C    1.525199   0.000000
     3  O    2.390826   1.219626   0.000000
     4  C    2.603192   1.504554   2.372759   0.000000
     5  C    2.994912   2.552358   3.646786   1.402182   0.000000
     6  C    4.391116   3.826668   4.800847   2.428387   1.396278
     7  C    5.240289   4.308644   5.018774   2.804923   2.418789
     8  C    5.030307   3.785845   4.188914   2.427418   2.792212
     9  C    3.874195   2.493656   2.795889   1.402514   2.418071
    10  H    1.095788   2.174603   3.110475   2.898317   2.968612
    11  H    1.092211   2.139506   2.495811   3.502167   4.066444
    12  H    1.095788   2.174601   3.110455   2.898333   2.968632
    13  H    2.632230   2.789637   3.999236   2.166691   1.085164
    14  H    5.015303   4.704660   5.760948   3.411682   2.155118
    15  H    6.301205   5.395469   6.082559   3.891835   3.403711
    16  H    5.988753   4.645366   4.837338   3.410322   3.878908
    17  H    4.175190   2.658920   2.454772   2.145779   3.394869
                    6          7          8          9         10
     6  C    0.000000
     7  C    1.395919   0.000000
     8  C    2.418588   1.398255   0.000000
     9  C    2.791264   2.417891   1.393335   0.000000
    10  H    4.297809   5.269653   5.233526   4.212730   0.000000
    11  H    5.461518   6.239854   5.892444   4.631738   1.781130
    12  H    4.297833   5.269680   5.233550   4.212749   1.774785
    13  H    2.143513   3.394798   3.877253   3.408570   2.425079
    14  H    1.086761   2.155842   3.404080   3.878024   4.791743
    15  H    2.155930   1.086912   2.158729   3.402947   6.285215
    16  H    3.404092   2.158594   1.086697   2.152042   6.231048
    17  H    3.875500   3.405883   2.159438   1.084318   4.641683
                   11         12         13         14         15
    11  H    0.000000
    12  H    1.781129   0.000000
    13  H    3.717011   2.425091   0.000000
    14  H    6.107004   4.791766   2.463901   0.000000
    15  H    7.314387   6.285244   4.289562   2.483404   0.000000
    16  H    6.782161   6.231073   4.963947   4.302850   2.487868
    17  H    4.717726   4.641698   4.299028   4.962251   4.306043
                   16         17
    16  H    0.000000
    17  H    2.489661   0.000000
 Stoichiometry    C8H8O
 Framework group  C1[X(C8H8O)]
 Deg. of freedom    45
 Full point group                 C1      NOp   1
 RotChk:  IX=0 Diff= 3.07D-03
 Largest Abelian subgroup         C1      NOp   1
 Largest concise Abelian subgroup C1      NOp   1
                         Standard orientation:                         
 ---------------------------------------------------------------------
 Center     Atomic      Atomic             Coordinates (Angstroms)
 Number     Number       Type             X           Y           Z
 ---------------------------------------------------------------------
      1          6           0        2.560140    1.053098    0.000016
      2          6           0        1.701612   -0.207522    0.000000
      3          8           0        2.216878   -1.312958   -0.000020
      4          6           0        0.204766   -0.055424    0.000001
      5          6           0       -0.431451    1.194112   -0.000008
      6          6           0       -1.825249    1.277281   -0.000009
      7          6           0       -2.595105    0.112844    0.000000
      8          6           0       -1.968342   -1.137070    0.000009
      9          6           0       -0.577451   -1.219547    0.000008
     10          1           0        2.362061    1.664702    0.887403
     11          1           0        3.611421    0.756902    0.000035
     12          1           0        2.362095    1.664698   -0.887382
     13          1           0        0.149664    2.110566   -0.000015
     14          1           0       -2.310300    2.249790   -0.000017
     15          1           0       -3.680045    0.178295    0.000001
     16          1           0       -2.564667   -2.045535    0.000016
     17          1           0       -0.078770   -2.182388    0.000013
 ---------------------------------------------------------------------
 Rotational constants (GHZ):      3.6758507      1.2088177      0.9148972
 Leave Link  202 at Fri Mar 20 17:33:39 2026, MaxMem=   536870912 cpu:         0.0
 (Enter C:\G09W\l301.exe)
 Standard basis: 6-31G(d) (6D, 7F)
 Ernie: Thresh=  0.10000D-02 Tol=  0.10000D-05 Strict=F.
 There are   151 symmetry adapted cartesian basis functions of A   symmetry.
 There are   151 symmetry adapted basis functions of A   symmetry.
   151 basis functions,   284 primitive gaussians,   151 cartesian basis functions
    32 alpha electrons       32 beta electrons
       nuclear repulsion energy       400.2626297418 Hartrees.
 IExCor=  402 DFT=T Ex+Corr=B3LYP ExCW=0 ScaHFX=  0.200000
 ScaDFX=  0.800000  0.720000  1.000000  0.810000 ScalE2=  1.000000  1.000000
 IRadAn=      0 IRanWt=     -1 IRanGd=            0 ICorTp=0 IEmpDi=  4
 NAtoms=   17 NActive=   17 NUniq=   17 SFac= 1.00D+00 NAtFMM=   60 NAOKFM=F Big=F
 Integral buffers will be    131072 words long.
 Raffenetti 2 integral format.
 Two-electron integral symmetry is turned on.
 Leave Link  301 at Fri Mar 20 17:33:39 2026, MaxMem=   536870912 cpu:         0.0
 (Enter C:\G09W\l302.exe)
 NPDir=0 NMtPBC=     1 NCelOv=     1 NCel=       1 NClECP=     1 NCelD=      1
         NCelK=      1 NCelE2=     1 NClLst=     1 CellRange=     0.0.
 One-electron integrals computed using PRISM.
 NBasis=   151 RedAO= T EigKep=  4.71D-04  NBF=   151
 NBsUse=   151 1.00D-06 EigRej= -1.00D+00 NBFU=   151
 Precomputing XC quadrature grid using
 IXCGrd= 4 IRadAn=           0 IRanWt=          -1 IRanGd=           0 AccXCQ= 0.00D+00.
 Generated NRdTot=       0 NPtTot=           0 NUsed=           0 NTot=          32
 NSgBfM=   151   151   151   151   151 MxSgAt=    17 MxSgA2=    17.
 Leave Link  302 at Fri Mar 20 17:33:41 2026, MaxMem=   536870912 cpu:         1.0
 (Enter C:\G09W\l303.exe)
 DipDrv:  MaxL=1.
 Leave Link  303 at Fri Mar 20 17:33:41 2026, MaxMem=   536870912 cpu:         0.0
 (Enter C:\G09W\l401.exe)
 Initial guess from the checkpoint file:  "acetophenone_ml.chk"
 B after Tr=     0.000000    0.000000    0.000000
         Rot=    1.000000    0.000000    0.000000   -0.000744 Ang=   0.09 deg.
 Guess basis will be translated and rotated to current coordinates.
 JPrj=2 DoOrth=T DoCkMO=T.
 Generating alternative initial guess.
 ExpMin= 1.61D-01 ExpMax= 5.48D+03 ExpMxC= 8.25D+02 IAcc=1 IRadAn=         1 AccDes= 0.00D+00
 Harris functional with IExCor=  402 and IRadAn=       1 diagonalized for initial guess.
 HarFok:  IExCor=  402 AccDes= 0.00D+00 IRadAn=         1 IDoV= 1 UseB2=F ITyADJ=14
 ICtDFT=  3500011 ScaDFX=  1.000000  1.000000  1.000000  1.000000
 FoFCou: FMM=F IPFlag=           0 FMFlag=      100000 FMFlg1=           0
         NFxFlg=           0 DoJE=T BraDBF=F KetDBF=T FulRan=T
         wScrn=  0.000000 ICntrl=     500 IOpCl=  0 I1Cent=   200000004 NGrid=           0
         NMat0=    1 NMatS0=      1 NMatT0=    0 NMatD0=    1 NMtDS0=    0 NMtDT0=    0
 Petite list used in FoFCou.
 Harris En= -384.930657756901    
 Leave Link  401 at Fri Mar 20 17:33:41 2026, MaxMem=   536870912 cpu:         0.0
 (Enter C:\G09W\l502.exe)
 Closed shell SCF:
 Using DIIS extrapolation, IDIIS=  1040.
 Integral symmetry usage will be decided dynamically.
 Keep R1 ints in memory in canonical form, NReq=67699856.
 IVT=       89002 IEndB=       89002 NGot=   536870912 MDV=   470926885
 LenX=   470926885 LenY=   470903643
 Requested convergence on RMS density matrix=1.00D-08 within 128 cycles.
 Requested convergence on MAX density matrix=1.00D-06.
 Requested convergence on             energy=1.00D-06.
 No special actions if energy rises.
 FoFCou: FMM=F IPFlag=           0 FMFlag=           0 FMFlg1=           0
         NFxFlg=           0 DoJE=F BraDBF=F KetDBF=F FulRan=T
         wScrn=  0.000000 ICntrl=     600 IOpCl=  0 I1Cent=           0 NGrid=           0
         NMat0=    1 NMatS0=  11476 NMatT0=    0 NMatD0=    1 NMtDS0=    0 NMtDT0=    0
 Symmetry not used in FoFCou.
 Integral accuracy reduced to 1.0D-05 until final iterations.

 Cycle   1  Pass 0  IDiag  1:
 E= -384.895647761432    
 DIIS: error= 7.10D-04 at cycle   1 NSaved=   1.
 NSaved= 1 IEnMin= 1 EnMin= -384.895647761432     IErMin= 1 ErrMin= 7.10D-04
 ErrMax= 7.10D-04  0.00D+00 EMaxC= 1.00D-01 BMatC= 1.76D-04 BMatP= 1.76D-04
 IDIUse=3 WtCom= 9.93D-01 WtEn= 7.10D-03
 Coeff-Com:  0.100D+01
 Coeff-En:   0.100D+01
 Coeff:      0.100D+01
 Gap=     1.918 Goal=   None    Shift=    0.000
 RMSDP=2.57D-04 MaxDP=3.52D-03              OVMax= 3.05D-03

 Cycle   2  Pass 0  IDiag  1:
 E= -384.895870548597     Delta-E=       -0.000222787165 Rises=F Damp=F
 DIIS: error= 3.11D-04 at cycle   2 NSaved=   2.
 NSaved= 2 IEnMin= 2 EnMin= -384.895870548597     IErMin= 2 ErrMin= 3.11D-04
 ErrMax= 3.11D-04  0.00D+00 EMaxC= 1.00D-01 BMatC= 1.96D-05 BMatP= 1.76D-04
 IDIUse=3 WtCom= 9.97D-01 WtEn= 3.11D-03
 Coeff-Com:  0.149D+00 0.851D+00
 Coeff-En:   0.000D+00 0.100D+01
 Coeff:      0.149D+00 0.851D+00
 Gap=     0.194 Goal=   None    Shift=    0.000
 RMSDP=6.58D-05 MaxDP=1.67D-03 DE=-2.23D-04 OVMax= 3.38D-03

 Cycle   3  Pass 0  IDiag  1:
 E= -384.895867218589     Delta-E=        0.000003330008 Rises=F Damp=F
 DIIS: error= 4.28D-04 at cycle   3 NSaved=   3.
 NSaved= 3 IEnMin= 2 EnMin= -384.895870548597     IErMin= 2 ErrMin= 3.11D-04
 ErrMax= 4.28D-04  0.00D+00 EMaxC= 1.00D-01 BMatC= 2.10D-05 BMatP= 1.96D-05
 IDIUse=3 WtCom= 9.96D-01 WtEn= 4.28D-03
 Coeff-Com: -0.293D-02 0.509D+00 0.493D+00
 Coeff-En:   0.000D+00 0.537D+00 0.463D+00
 Coeff:     -0.292D-02 0.510D+00 0.493D+00
 Gap=     0.194 Goal=   None    Shift=    0.000
 RMSDP=4.13D-05 MaxDP=1.03D-03 DE= 3.33D-06 OVMax= 2.56D-03

 Cycle   4  Pass 0  IDiag  1:
 E= -384.895887912509     Delta-E=       -0.000020693920 Rises=F Damp=F
 DIIS: error= 1.30D-04 at cycle   4 NSaved=   4.
 NSaved= 4 IEnMin= 4 EnMin= -384.895887912509     IErMin= 4 ErrMin= 1.30D-04
 ErrMax= 1.30D-04  0.00D+00 EMaxC= 1.00D-01 BMatC= 1.15D-06 BMatP= 1.96D-05
 IDIUse=3 WtCom= 9.99D-01 WtEn= 1.30D-03
 Coeff-Com: -0.105D-01 0.220D+00 0.281D+00 0.510D+00
 Coeff-En:   0.000D+00 0.000D+00 0.000D+00 0.100D+01
 Coeff:     -0.105D-01 0.219D+00 0.281D+00 0.511D+00
 Gap=     0.194 Goal=   None    Shift=    0.000
 RMSDP=9.50D-06 MaxDP=2.21D-04 DE=-2.07D-05 OVMax= 5.79D-04

 Initial convergence to 1.0D-05 achieved.  Increase integral accuracy.
 Cycle   5  Pass 1  IDiag  1:
 E= -384.895925764767     Delta-E=       -0.000037852259 Rises=F Damp=F
 DIIS: error= 2.75D-05 at cycle   1 NSaved=   1.
 NSaved= 1 IEnMin= 1 EnMin= -384.895925764767     IErMin= 1 ErrMin= 2.75D-05
 ErrMax= 2.75D-05  0.00D+00 EMaxC= 1.00D-01 BMatC= 1.27D-07 BMatP= 1.27D-07
 IDIUse=1 WtCom= 1.00D+00 WtEn= 0.00D+00
 Coeff-Com:  0.100D+01
 Coeff:      0.100D+01
 Gap=     0.194 Goal=   None    Shift=    0.000
 RMSDP=9.50D-06 MaxDP=2.21D-04 DE=-3.79D-05 OVMax= 2.51D-04

 Cycle   6  Pass 1  IDiag  1:
 E= -384.895925676406     Delta-E=        0.000000088361 Rises=F Damp=F
 DIIS: error= 5.09D-05 at cycle   2 NSaved=   2.
 NSaved= 2 IEnMin= 1 EnMin= -384.895925764767     IErMin= 1 ErrMin= 2.75D-05
 ErrMax= 5.09D-05  0.00D+00 EMaxC= 1.00D-01 BMatC= 2.23D-07 BMatP= 1.27D-07
 IDIUse=1 WtCom= 1.00D+00 WtEn= 0.00D+00
 Coeff-Com:  0.577D+00 0.423D+00
 Coeff:      0.577D+00 0.423D+00
 Gap=     0.194 Goal=   None    Shift=    0.000
 RMSDP=3.49D-06 MaxDP=1.02D-04 DE= 8.84D-08 OVMax= 1.99D-04

 Cycle   7  Pass 1  IDiag  1:
 E= -384.895925902234     Delta-E=       -0.000000225828 Rises=F Damp=F
 DIIS: error= 1.26D-05 at cycle   3 NSaved=   3.
 NSaved= 3 IEnMin= 3 EnMin= -384.895925902234     IErMin= 3 ErrMin= 1.26D-05
 ErrMax= 1.26D-05  0.00D+00 EMaxC= 1.00D-01 BMatC= 7.61D-09 BMatP= 1.27D-07
 IDIUse=1 WtCom= 1.00D+00 WtEn= 0.00D+00
 Coeff-Com:  0.105D+00 0.171D+00 0.723D+00
 Coeff:      0.105D+00 0.171D+00 0.723D+00
 Gap=     0.194 Goal=   None    Shift=    0.000
 RMSDP=1.19D-06 MaxDP=2.30D-05 DE=-2.26D-07 OVMax= 6.82D-05

 Cycle   8  Pass 1  IDiag  1:
 E= -384.895925907106     Delta-E=       -0.000000004872 Rises=F Damp=F
 DIIS: error= 6.15D-06 at cycle   4 NSaved=   4.
 NSaved= 4 IEnMin= 4 EnMin= -384.895925907106     IErMin= 4 ErrMin= 6.15D-06
 ErrMax= 6.15D-06  0.00D+00 EMaxC= 1.00D-01 BMatC= 4.10D-09 BMatP= 7.61D-09
 IDIUse=1 WtCom= 1.00D+00 WtEn= 0.00D+00
 Coeff-Com: -0.845D-02 0.546D-01 0.491D+00 0.463D+00
 Coeff:     -0.845D-02 0.546D-01 0.491D+00 0.463D+00
 Gap=     0.194 Goal=   None    Shift=    0.000
 RMSDP=4.88D-07 MaxDP=1.42D-05 DE=-4.87D-09 OVMax= 2.57D-05

 Cycle   9  Pass 1  IDiag  1:
 E= -384.895925911502     Delta-E=       -0.000000004396 Rises=F Damp=F
 DIIS: error= 1.18D-06 at cycle   5 NSaved=   5.
 NSaved= 5 IEnMin= 5 EnMin= -384.895925911502     IErMin= 5 ErrMin= 1.18D-06
 ErrMax= 1.18D-06  0.00D+00 EMaxC= 1.00D-01 BMatC= 1.32D-10 BMatP= 4.10D-09
 IDIUse=1 WtCom= 1.00D+00 WtEn= 0.00D+00
 Coeff-Com: -0.937D-02 0.230D-01 0.253D+00 0.253D+00 0.481D+00
 Coeff:     -0.937D-02 0.230D-01 0.253D+00 0.253D+00 0.481D+00
 Gap=     0.194 Goal=   None    Shift=    0.000
 RMSDP=9.96D-08 MaxDP=3.48D-06 DE=-4.40D-09 OVMax= 4.15D-06

 Cycle  10  Pass 1  IDiag  1:
 E= -384.895925911611     Delta-E=       -0.000000000109 Rises=F Damp=F
 DIIS: error= 5.28D-07 at cycle   6 NSaved=   6.
 NSaved= 6 IEnMin= 6 EnMin= -384.895925911611     IErMin= 6 ErrMin= 5.28D-07
 ErrMax= 5.28D-07  0.00D+00 EMaxC= 1.00D-01 BMatC= 2.27D-11 BMatP= 1.32D-10
 IDIUse=1 WtCom= 1.00D+00 WtEn= 0.00D+00
 Coeff-Com: -0.513D-02 0.837D-02 0.109D+00 0.107D+00 0.315D+00 0.466D+00
 Coeff:     -0.513D-02 0.837D-02 0.109D+00 0.107D+00 0.315D+00 0.466D+00
 Gap=     0.194 Goal=   None    Shift=    0.000
 RMSDP=3.51D-08 MaxDP=1.26D-06 DE=-1.09D-10 OVMax= 1.70D-06

 Cycle  11  Pass 1  IDiag  1:
 E= -384.895925911628     Delta-E=       -0.000000000017 Rises=F Damp=F
 DIIS: error= 1.11D-07 at cycle   7 NSaved=   7.
 NSaved= 7 IEnMin= 7 EnMin= -384.895925911628     IErMin= 7 ErrMin= 1.11D-07
 ErrMax= 1.11D-07  0.00D+00 EMaxC= 1.00D-01 BMatC= 1.16D-12 BMatP= 2.27D-11
 IDIUse=1 WtCom= 1.00D+00 WtEn= 0.00D+00
 Coeff-Com: -0.166D-02 0.189D-02 0.304D-01 0.276D-01 0.115D+00 0.244D+00
 Coeff-Com:  0.583D+00
 Coeff:     -0.166D-02 0.189D-02 0.304D-01 0.276D-01 0.115D+00 0.244D+00
 Coeff:      0.583D+00
 Gap=     0.194 Goal=   None    Shift=    0.000
 RMSDP=8.57D-09 MaxDP=2.03D-07 DE=-1.67D-11 OVMax= 4.61D-07

 SCF Done:  E(RB3LYP) =  -384.895925912     A.U. after   11 cycles
            NFock= 11  Conv=0.86D-08     -V/T= 2.0097
 KE= 3.812087907626D+02 PE=-1.694524960739D+03 EE= 5.281576143226D+02
 Leave Link  502 at Fri Mar 20 17:33:58 2026, MaxMem=   536870912 cpu:        16.0
 (Enter C:\G09W\l701.exe)
 Compute integral first derivatives.
 ... and contract with generalized density number  0.
 Leave Link  701 at Fri Mar 20 17:33:58 2026, MaxMem=   536870912 cpu:         0.0
 (Enter C:\G09W\l702.exe)
 L702 exits ... SP integral derivatives will be done elsewhere.
 Leave Link  702 at Fri Mar 20 17:33:58 2026, MaxMem=   536870912 cpu:         0.0
 (Enter C:\G09W\l703.exe)
 Compute integral first derivatives, UseDBF=F ICtDFT=           0.
 Integral derivatives from FoFJK, PRISM(SPDF).
 Calling FoFJK, ICntrl=      2127 FMM=F ISym2X=0 I1Cent= 0 IOpClX= 0 NMat=1 NMatS=1 NMatT=0.
 FoFJK:  IHMeth= 1 ICntrl=    2127 DoSepK=F KAlg= 0 I1Cent=   0 FoldK=F
 IRaf=         0 NMat=   1 IRICut=       1 DoRegI=T DoRafI=F ISym2E= 0.
 FoFCou: FMM=F IPFlag=           0 FMFlag=      100000 FMFlg1=         800
         NFxFlg=           0 DoJE=F BraDBF=F KetDBF=F FulRan=T
         wScrn=  0.000000 ICntrl=    2127 IOpCl=  0 I1Cent=           0 NGrid=           0
         NMat0=    1 NMatS0=      1 NMatT0=    0 NMatD0=    1 NMtDS0=    0 NMtDT0=    0
 Symmetry not used in FoFCou.
 Leave Link  703 at Fri Mar 20 17:34:03 2026, MaxMem=   536870912 cpu:         5.0
 (Enter C:\G09W\l716.exe)
 Dipole        =-7.29868474D-01 9.17248387D-01 1.30691179D-05
 ***** Axes restored to original set *****
 -------------------------------------------------------------------
 Center     Atomic                   Forces (Hartrees/Bohr)
 Number     Number              X              Y              Z
 -------------------------------------------------------------------
      1        6          -0.001267346   -0.003566675    0.000642695
      2        6           0.002238840    0.004587586   -0.000933782
      3        8          -0.000832590   -0.001533923    0.000326900
      4        6          -0.002897254   -0.000800866    0.000604850
      5        6           0.002136276    0.000781119   -0.000468473
      6        6          -0.000671205   -0.000134417    0.000134107
      7        6          -0.000280755   -0.000245146    0.000078298
      8        6          -0.001364977    0.000041387    0.000235845
      9        6           0.003441998   -0.000565046   -0.000540316
     10        1           0.000695559    0.000817193    0.000127750
     11        1           0.000419876   -0.000142578   -0.000057183
     12        1           0.000578745    0.000739249   -0.000535374
     13        1          -0.000711344   -0.000023991    0.000128171
     14        1          -0.000277172    0.000002877    0.000048522
     15        1          -0.000051730    0.000015787    0.000007287
     16        1           0.000015884    0.000043918   -0.000007978
     17        1          -0.001172804   -0.000016474    0.000208682
 -------------------------------------------------------------------
 Cartesian Forces:  Max     0.004587586 RMS     0.001246104
 Leave Link  716 at Fri Mar 20 17:34:03 2026, MaxMem=   536870912 cpu:         0.0
 (Enter C:\G09W\l103.exe)

 GradGradGradGradGradGradGradGradGradGradGradGradGradGradGradGradGradGrad
 Berny optimization.
 Using GEDIIS/GDIIS optimizer.
 FormGI is forming the generalized inverse of G from B-inverse, IUseBI=4.
 Internal  Forces:  Max     0.002009333 RMS     0.000562885
 Search for a local minimum.
 Step number   2 out of a maximum of   88
 All quantities printed in internal units (Hartrees-Bohrs-Radians)
 RMS Force = .56289D-03 SwitMx=.10000D-02 MixMth= 2
 Mixed Optimization -- En-DIIS/RFO-DIIS
 Update second derivatives using D2CorX and points    1    2
 DE= -1.07D-03 DEPred=-9.78D-04 R= 1.09D+00
 TightC=F SS=  1.41D+00  RLast= 9.97D-02 DXNew= 5.0454D-01 2.9895D-01
 Trust test= 1.09D+00 RLast= 9.97D-02 DXMaxT set to 3.00D-01
 ITU=  1  0
 Use linear search instead of GDIIS.
     Eigenvalues ---    0.00479   0.00610   0.00807   0.01720   0.02130
     Eigenvalues ---    0.02136   0.02140   0.02143   0.02144   0.02148
     Eigenvalues ---    0.02150   0.02151   0.06575   0.07358   0.14455
     Eigenvalues ---    0.16000   0.16000   0.16000   0.16000   0.16000
     Eigenvalues ---    0.16000   0.16115   0.21966   0.22009   0.23532
     Eigenvalues ---    0.24928   0.25000   0.25363   0.30582   0.33611
     Eigenvalues ---    0.34126   0.34268   0.34294   0.35050   0.35129
     Eigenvalues ---    0.35151   0.35194   0.36000   0.41958   0.42078
     Eigenvalues ---    0.45543   0.46148   0.46393   0.47026   0.99696
 RFO step:  Lambda=-9.68002044D-05 EMin= 4.78875110D-03
 Quartic linear search produced a step of  0.11691.
 Iteration  1 RMS(Cart)=  0.00379819 RMS(Int)=  0.00001706
 Iteration  2 RMS(Cart)=  0.00001775 RMS(Int)=  0.00000291
 Iteration  3 RMS(Cart)=  0.00000000 RMS(Int)=  0.00000291
 ITry= 1 IFail=0 DXMaxC= 1.68D-02 DCOld= 1.00D+10 DXMaxT= 3.00D-01 DXLimC= 3.00D+00 Rises=F
 Variable       Old X    -DE/DX   Delta X   Delta X   Delta X     New X
                                 (Linear)    (Quad)   (Total)
    R1        2.88221  -0.00201   0.00077  -0.00788  -0.00711   2.87510
    R2        2.07074   0.00028   0.00028   0.00074   0.00102   2.07176
    R3        2.06398  -0.00036  -0.00105  -0.00058  -0.00163   2.06235
    R4        2.07074   0.00028   0.00028   0.00074   0.00102   2.07176
    R5        2.30476   0.00177   0.00254   0.00048   0.00303   2.30779
    R6        2.84319  -0.00197   0.00169  -0.00769  -0.00600   2.83719
    R7        2.64974   0.00041   0.00149   0.00018   0.00167   2.65141
    R8        2.65037   0.00073   0.00105   0.00122   0.00227   2.65264
    R9        2.63858  -0.00117  -0.00010  -0.00274  -0.00284   2.63574
   R10        2.05066   0.00038  -0.00034   0.00139   0.00105   2.05171
   R11        2.63791   0.00019   0.00021   0.00029   0.00050   2.63841
   R12        2.05368  -0.00012  -0.00007  -0.00033  -0.00041   2.05328
   R13        2.64232   0.00003   0.00055  -0.00031   0.00023   2.64255
   R14        2.05397  -0.00005   0.00004  -0.00018  -0.00014   2.05382
   R15        2.63302  -0.00152  -0.00042  -0.00344  -0.00386   2.62916
   R16        2.05356  -0.00003  -0.00026   0.00006  -0.00020   2.05336
   R17        2.04906   0.00055  -0.00130   0.00251   0.00121   2.05028
    A1        1.93861   0.00010   0.00159  -0.00168  -0.00010   1.93851
    A2        1.89405  -0.00012  -0.00129   0.00266   0.00136   1.89542
    A3        1.93861   0.00010   0.00159  -0.00168  -0.00010   1.93850
    A4        1.90217   0.00041   0.00199   0.00438   0.00636   1.90853
    A5        1.88769  -0.00087  -0.00579  -0.00781  -0.01361   1.87409
    A6        1.90216   0.00041   0.00198   0.00438   0.00636   1.90852
    A7        2.10753  -0.00088   0.00067  -0.00433  -0.00366   2.10387
    A8        2.06742   0.00139   0.00001   0.00621   0.00622   2.07364
    A9        2.10824  -0.00051  -0.00068  -0.00188  -0.00256   2.10568
   A10        2.14301   0.00001   0.00076  -0.00052   0.00024   2.14325
   A11        2.06117   0.00000   0.00116  -0.00080   0.00035   2.06152
   A12        2.07900   0.00000  -0.00192   0.00133  -0.00059   2.07841
   A13        2.10135  -0.00015   0.00127  -0.00129  -0.00001   2.10133
   A14        2.10553  -0.00056  -0.00283  -0.00252  -0.00535   2.10018
   A15        2.07631   0.00071   0.00156   0.00380   0.00536   2.08167
   A16        2.09536  -0.00007  -0.00039  -0.00017  -0.00055   2.09481
   A17        2.09305  -0.00023  -0.00038  -0.00144  -0.00182   2.09123
   A18        2.09477   0.00030   0.00077   0.00160   0.00237   2.09714
   A19        2.09262   0.00032  -0.00001   0.00137   0.00135   2.09397
   A20        2.09471  -0.00018  -0.00043  -0.00061  -0.00104   2.09367
   A21        2.09585  -0.00013   0.00044  -0.00076  -0.00031   2.09554
   A22        2.09483  -0.00011   0.00002  -0.00075  -0.00073   2.09410
   A23        2.09592   0.00001  -0.00003   0.00008   0.00004   2.09597
   A24        2.09244   0.00010   0.00001   0.00068   0.00069   2.09313
   A25        2.10321   0.00001   0.00102  -0.00049   0.00054   2.10375
   A26        2.07207  -0.00109  -0.00387  -0.00533  -0.00920   2.06287
   A27        2.10791   0.00107   0.00284   0.00582   0.00866   2.11657
    D1       -2.09073  -0.00048  -0.00259  -0.00605  -0.00863  -2.09936
    D2        1.05087  -0.00048  -0.00258  -0.00608  -0.00866   1.04221
    D3       -0.00003   0.00000   0.00000   0.00002   0.00002   0.00000
    D4        3.14157   0.00000   0.00000  -0.00001  -0.00001   3.14156
    D5        2.09067   0.00048   0.00259   0.00609   0.00868   2.09935
    D6       -1.05092   0.00048   0.00259   0.00606   0.00865  -1.04227
    D7        0.00002   0.00000   0.00000   0.00001   0.00000   0.00002
    D8       -3.14157   0.00000   0.00000   0.00000   0.00000  -3.14157
    D9       -3.14157   0.00000   0.00000  -0.00003  -0.00003   3.14159
   D10        0.00002   0.00000   0.00000  -0.00003  -0.00003  -0.00001
   D11        3.14159   0.00000   0.00000   0.00000   0.00000   3.14159
[...]
 ! D32   D(7,8,9,17)           180.0            -DE/DX =    0.0                 !
 ! D33   D(16,8,9,4)          -179.9999         -DE/DX =    0.0                 !
 ! D34   D(16,8,9,17)            0.0            -DE/DX =    0.0                 !
 --------------------------------------------------------------------------------
 GradGradGradGradGradGradGradGradGradGradGradGradGradGradGradGradGradGrad

 Leave Link  103 at Fri Mar 20 17:37:26 2026, MaxMem=   536870912 cpu:         0.0
 (Enter C:\G09W\l9999.exe)
 1|1|UNPC-DESKTOP-GS7R1K3|Freq|RB3LYP|6-31G(d)|C8H8O1|1172|20-Mar-2026|
 0||#P Geom=AllCheck Guess=TCheck SCRF=Check GenChk RB3LYP/6-31G(d) Fre
 q||acetophenone ml||0,1|C,-2.5963299341,0.768667259,0.5071893894|C,-1.
 7050101177,-0.4632035835,0.4948917709|O,-2.1758328204,-1.5700959398,0.
 7082022486|C,-0.2402295166,-0.2955836162,0.216955932|C,0.3473874498,0.
 9536756526,-0.0335963159|C,1.7155896079,1.0520605505,-0.2863640571|C,2
 .5093258635,-0.0963403102,-0.2911876391|C,1.9323874,-1.3456535425,-0.0
 425102305|C,0.5677396859,-1.4437162248,0.2095932072|H,-2.5713419405,1.
 2834766625,-0.4607010485|H,-3.6191916437,0.4566940632,0.7242672999|H,-
 2.2665693535,1.4867450132,1.2675107009|H,-0.2587371739,1.8545350624,-0
 .0327240557|H,2.1613876802,2.0240217603,-0.4792946443|H,3.5753259852,-
 0.0185127037,-0.4882630809|H,2.5492776849,-2.240224663,-0.0460196778|H
 ,0.097227143,-2.4017734399,0.4052452009||Version=EM64W-G09RevD.01|Stat
 e=1-A|HF=-384.8959951|RMSD=2.172e-009|RMSF=5.653e-005|ZeroPoint=0.1384
 941|Thermal=0.1462754|Dipole=0.6916319,0.9259042,-0.2308884|DipoleDeri
 v=-0.1835624,0.1911839,0.0216131,0.2213985,-0.213174,-0.0061409,0.0180
 891,-0.0008381,0.063487,1.6902631,-0.009391,-0.2666996,0.0146846,0.947
 6643,-0.093904,-0.2695363,-0.0896737,0.2293481,-0.9277934,-0.1499864,0
 .1260932,-0.3037491,-0.8442873,0.1160817,0.1442091,0.0890113,-0.348539
 6,-0.6932987,-0.009371,0.1232701,0.087996,-0.1022063,-0.0035378,0.1117
 962,0.0136341,-0.0216843,0.1193757,-0.1158901,-0.0253398,0.0667476,0.0
 207525,-0.0261749,-0.0468412,0.0060188,-0.0941596,-0.1626842,0.1374302
 ,-0.0078808,0.1726455,0.0916529,-0.0548271,-0.0120227,-0.0486148,-0.10
 7844,0.1379807,0.0110114,-0.0407788,-0.0179836,0.0256995,-0.0099696,-0
 .0373702,-0.0150817,-0.0776381,-0.0504768,-0.198741,0.0120447,-0.15987
 91,0.0469254,0.0091604,0.0074758,0.0160099,-0.1179795,0.0300297,0.1455
 353,-0.0362263,-0.0887879,0.026977,0.0032646,-0.0086715,-0.0380512,-0.
 0723546,0.062987,-0.0010014,0.0418638,0.0101357,0.0326556,0.0552224,0.
 0216485,0.0623359,-0.0572352,-0.0874115,-0.0045629,0.0297494,-0.051371
 1,0.0540693,0.0119063,0.0352588,0.003651,0.0716172,0.030311,-0.037421,
 -0.0637905,-0.0203001,0.002605,-0.0642335,-0.0469094,-0.0663606,0.0055
 011,0.0273124,0.0867231,0.0031906,0.0873917,-0.0326823,0.00059,0.00311
 16,0.0007083,0.1026587,0.0233238,-0.0572982,0.0226108,-0.0737531,-0.07
 78483,0.0354943,0.0245484,0.0325913,0.1051836,-0.1083203,-0.0111834,0.
 0398731,-0.0114572,0.065822,0.0072639,0.0399038,0.0072156,0.1025168,-0
 .0080985,0.0815978,0.0118294,0.0904499,-0.0529885,0.0036354,0.010789,0
 .0051975,0.110941,0.1000624,-0.0586352,0.0085776,-0.0241681,0.0083632,
 0.0161688,0.0045212,0.0222464,0.1061815|Polar=112.1750907,0.451402,90.
 8504134,-13.5565472,-6.581997,38.7443731|PG=C01 [X(C8H8O1)]|NImag=0||0
 .56520802,0.06720631,0.50937983,-0.01359065,-0.00908201,0.53642075,-0.
 14437330,0.04610820,0.00435302,0.55257372,0.05146865,-0.12624324,-0.00
 469313,0.12955922,0.86598520,0.00371877,-0.00374295,-0.08915876,-0.073
 49467,-0.09860284,0.24681904,0.02064339,0.01392520,-0.00080982,-0.1908
 0326,-0.21013010,0.04654857,0.21001192,-0.00885879,-0.05974572,0.01157
 627,-0.20065591,-0.61527718,0.09990294,0.24630737,0.69407848,0.0018718
 3,0.00755508,0.02412264,0.04543465,0.10157670,-0.08704913,-0.06166427,
 -0.12221277,0.04996916,-0.01462761,0.00259140,0.00503962,-0.17750117,0
 .02602612,0.01443506,-0.03101692,-0.04414463,0.01404157,0.59630120,0.0
 2472662,0.00728977,-0.00337108,0.01231643,-0.10354267,0.00080204,-0.05
 291087,-0.01460480,0.01330322,-0.00862115,0.69591980,0.00243844,0.0005
 3029,0.01519744,0.01604329,-0.00161441,-0.08089067,0.01507480,0.011758
 19,0.01512003,-0.07881109,-0.06346994,0.16485183,-0.00251069,0.0007895
 6,0.00011017,-0.01087237,-0.03056091,0.00544080,-0.00580448,0.00033800
 ,0.00152033,-0.15333978,-0.04106485,0.02063453,0.68386301,0.00049971,-
 0.00047074,-0.00019322,-0.01694352,0.00028050,0.00290764,0.00722334,0.
 00561121,-0.00157641,-0.09135303,-0.28500249,0.04214029,-0.04731009,0.
 70291878,0.00014379,-0.00024390,-0.00135859,0.00383939,0.00530676,-0.0
 0170390,0.00070975,-0.00036188,0.00295937,0.02655108,0.03327522,-0.072
 27779,-0.09111177,-0.05841832,0.15837759,0.00032283,-0.00005288,-0.000
 32921,0.00614911,-0.00221127,0.00056699,-0.00313543,-0.00186032,0.0004
 7752,-0.01915019,-0.07481727,0.01380096,-0.33156144,0.01833700,0.04563
 347,0.66824818,0.00030720,-0.00008333,-0.00023007,-0.00143690,-0.00519
 009,0.00179189,-0.00144640,0.00051709,-0.00000185,-0.02901575,0.024003
 35,0.00337376,-0.04810581,-0.12948483,0.01660061,0.01584742,0.72542692
 ,-0.00037156,-0.00016666,-0.00149420,0.00047635,0.00192865,0.00757942,
 0.00042851,0.00007064,-0.00175220,0.00841218,0.01144834,0.00637750,0.0
 5345052,0.00488775,-0.07045856,-0.09692351,-0.07295648,0.15468236,-0.0
 0013856,0.00010964,0.00006425,0.00045624,-0.00079436,-0.00009314,-0.00
 044150,0.00080491,-0.00002193,-0.00118124,0.00649015,-0.00201714,-0.03
 532238,0.02297193,0.00474745,-0.19624482,0.13280807,0.00823473,0.72703
 620,0.00035454,-0.00041767,0.00002167,0.00033921,-0.00400742,0.0003407
 9,-0.00179310,0.00015278,0.00029470,0.00542670,-0.06286366,0.00546333,
 0.07179725,0.04027366,-0.01657840,0.06628908,-0.27298079,0.01326303,-0
 .00766971,0.66452633,0.00003546,0.00006500,0.00028526,-0.00022682,0.00
 054045,-0.00062747,0.00028382,-0.00016315,-0.00005891,-0.00189207,0.00
 527564,-0.00858015,-0.00099629,-0.00797108,0.00805223,0.01605996,0.001
 53699,-0.06391627,-0.10353452,-0.06098903,0.16003077,-0.00075255,0.000
 26641,-0.00003107,0.00416786,0.00734882,-0.00036615,0.00114715,-0.0022
 7861,-0.00003863,-0.03648814,0.06389673,0.00036981,-0.04513815,-0.0293
 7799,0.01007672,0.06391153,-0.01364078,-0.00829925,-0.16345031,-0.0402
 1336,0.02281508,0.68688906,0.00145685,0.00135633,-0.00050480,0.0051161
 3,-0.00518998,0.00053167,-0.00205535,0.00081948,0.00019616,0.01915035,
 0.03882178,-0.00697194,-0.02947983,-0.02100694,0.00677616,0.03280765,-
 0.05543284,0.00164699,-0.10664484,-0.29491951,0.04633462,-0.04691877,0
 .71202038,-0.00017143,-0.00029498,-0.00068717,-0.00010275,0.00013839,0
 .00699907,-0.00006517,0.00023526,-0.00061022,0.00563357,-0.01486011,0.
 00900589,0.01008864,0.00675810,-0.01015526,-0.01376354,0.00983519,0.00
 899810,0.03063024,0.03462389,-0.07033730,-0.09247619,-0.06008201,0.154
 36652,-0.00423611,-0.00373923,0.00152798,-0.03418411,0.02177055,0.0039
 2858,-0.00051594,0.00782482,-0.00084591,-0.17616325,0.06256804,0.01187
 125,0.05922916,0.02987869,-0.01247066,-0.05451598,0.02450946,0.0054029
 4,-0.01582468,-0.08009688,0.01339491,-0.34197967,0.01958439,0.04716739
 ,0.69254866,-0.00290740,0.00033032,0.00070191,0.01355822,0.01724485,-0
 .00411130,-0.00264642,-0.00860511,0.00146902,0.11220040,-0.25813995,0.
 00269969,-0.01150004,-0.05474453,0.00945869,0.02626113,-0.01304949,-0.
 00397761,-0.03369536,0.02666189,0.00359246,-0.04538055,-0.13145072,0.0
 1624659,0.03019709,0.70711050,0.00143045,0.00084811,0.00158559,0.00489
 350,-0.00555742,0.00241321,0.00038675,-0.00037802,-0.00011253,0.006032
 86,0.01144913,-0.06947266,-0.00760286,0.00216453,0.00951203,0.00519694
 ,-0.00366895,-0.00799465,0.00793600,0.01177233,0.00392353,0.05480984,0
 .00479444,-0.07157437,-0.10091510,-0.07201077,0.16650446,-0.05065697,-
 0.00087452,0.00483499,0.00378664,0.00424078,-0.02017917,-0.00056109,0.
 00291480,0.00185411,-0.00077186,0.00001352,0.00226448,-0.00079008,0.00
 038160,0.00003978,-0.00013885,-0.00018508,-0.00021037,0.00000118,0.000
 10544,-0.00000593,-0.00017622,-0.00027669,-0.00008734,0.00046976,-0.00
 020445,0.00017539,0.04788275,-0.00163863,-0.10160906,0.11442208,-0.005
 30045,-0.01163843,0.02574060,0.00341935,-0.00533291,-0.00362584,-0.000
 15164,0.00010059,-0.00205718,-0.00039588,0.00030663,-0.00015161,0.0004
 0411,-0.00004844,-0.00003244,-0.00003083,0.00028085,-0.00006869,-0.000
 21915,-0.00003922,0.00018317,0.00022191,-0.00025134,-0.00034048,0.0028
 8794,0.11050697,0.00650374,0.10991383,-0.25263564,0.00053546,-0.000716
 70,0.00311324,-0.00098739,-0.00095851,-0.00064714,0.00000898,0.0004414
 4,-0.00038676,0.00052157,0.00099959,0.00031570,0.00000621,-0.00034255,
 0.00030115,0.00008040,-0.00011036,-0.00004330,0.00015912,0.00007271,0.
 00000254,-0.00038684,-0.00002095,0.00003419,-0.00740824,-0.12111083,0.
 27465021,-0.29233825,-0.07513753,0.05150213,-0.02230573,-0.00760128,0.
 00466321,0.00475058,-0.00199855,-0.00081157,-0.00059235,0.00366954,-0.
 00004571,0.00051593,0.00046153,-0.00011381,0.00011469,-0.00004847,0.00
 001639,0.00000679,0.00007229,-0.00001040,-0.00016191,0.00032996,-0.000
 03913,-0.00084882,-0.00065497,0.00027861,0.00240515,0.00076643,-0.0001
 5716,0.31512033,-0.08030201,-0.07228201,0.01673386,0.03044333,0.007943
 07,-0.00641246,-0.00232223,0.00279732,-0.00005908,0.00154296,-0.004970
 01,0.00050025,-0.00031280,-0.00107130,0.00020216,-0.00007164,0.0003700
 8,-0.00001029,-0.00008444,-0.00008037,0.00002387,0.00020028,-0.0003698
 8,-0.00001101,0.00135817,0.00063444,-0.00027943,-0.01335126,-0.0044271
 5,0.00107722,0.08163019,0.07634442,0.05210972,0.01582316,-0.06146039,0
 .00018892,0.00029670,-0.00100006,-0.00077372,-0.00011602,-0.00103489,0
 .00020416,0.00012516,0.00154477,-0.00002282,0.00006557,0.00017461,0.00
 001913,-0.00001435,0.00017356,0.00000802,-0.00000374,-0.00000495,-0.00
 002386,-0.00003394,-0.00015535,0.00004189,0.00007552,0.00027815,0.0278
 9829,0.00732869,-0.00411782,-0.05671464,-0.01773345,0.06005237,-0.0742
 4740,-0.05021348,-0.05351580,0.01029556,0.00916562,0.01697187,-0.00115
 169,0.00272760,-0.00255137,-0.00146473,-0.00063516,-0.00186498,-0.0008
 2903,0.00005930,0.00036050,-0.00003698,0.00001801,0.00033553,-0.000032
 27,0.00012036,-0.00003060,-0.00015660,-0.00024706,0.00021742,0.0004808
 3,-0.00023065,-0.00030326,-0.00035637,0.00039627,0.00092570,-0.0065729
 7,-0.01865131,-0.02288765,0.07506011,-0.05280952,-0.15814913,-0.125434
 89,-0.01314897,-0.01648604,-0.01860999,0.00472977,-0.00431839,0.003101
 13,0.00056468,0.00045456,0.00187390,-0.00037144,0.00012514,0.00034735,
 0.00040316,0.00004105,-0.00005934,-0.00003780,0.00030102,0.00000204,-0
 .00028719,-0.00007362,-0.00007412,0.00039349,-0.00015910,0.00027262,0.
 00482920,0.01188863,0.01148913,-0.00154255,-0.00550850,-0.00568215,0.0
 5764361,0.17145422,-0.05478935,-0.12151851,-0.17250422,0.00000395,0.00
 222997,0.00145040,-0.00000440,0.00087480,-0.00106957,0.00026868,-0.000
 44236,-0.00004735,0.00002072,-0.00101684,0.00053597,0.00000434,0.00042
 254,0.00010979,-0.00008231,-0.00000814,-0.00003002,-0.00003117,0.00003
 941,0.00001717,0.00013542,0.00013820,-0.00006891,-0.00901740,-0.020277
 44,-0.02032476,0.00149512,0.00607615,0.00594139,0.06187384,0.13280561,
 0.18652468,-0.00160713,-0.00024045,0.00061553,0.00029757,-0.00033545,-
 0.00076876,0.00031214,0.00055597,0.00000322,0.01205184,-0.01046535,-0.
 00055919,-0.14609721,0.12927592,0.00414313,-0.01303386,0.02805344,-0.0
 0040659,-0.00502804,-0.00199436,0.00242669,-0.00048600,-0.00081743,0.0
 0012762,-0.00068877,-0.00281328,0.00154724,-0.00125205,-0.00021321,0.0
 0013463,0.00009797,-0.00024323,-0.00006374,-0.00109938,-0.00019309,0.0
 0019875,0.15569605,0.00043105,0.00032520,0.00008846,0.00291583,-0.0005
 7197,-0.00095122,-0.00080424,0.00045896,0.00017038,0.01730927,-0.01882
 146,-0.00061424,0.12919074,-0.25329737,0.00275079,-0.00319245,0.005752
 21,0.00028384,-0.00085573,0.00139711,0.00085782,-0.00074459,0.00013067
 ,0.00007973,-0.00405846,-0.00343274,0.00184985,-0.00039056,0.00020010,
 -0.00063591,-0.00000058,0.00056825,-0.00011678,-0.00008372,0.00035023,
 0.00056875,-0.14098522,0.26694885,0.00053655,0.00020686,0.00160428,-0.
 00115147,-0.00037796,-0.00403947,0.00016339,-0.00006935,0.00068096,-0.
 00382644,0.00428227,0.00206560,0.00415289,0.00273530,-0.03737763,0.003
 26946,-0.00522426,0.00341951,0.00229271,0.00105870,0.00687809,0.000118
 96,0.00009251,-0.00033938,0.00169373,0.00163033,0.00572030,-0.00020387
 ,-0.00005741,-0.00023999,-0.00009228,-0.00007405,-0.00040067,0.0005452
 3,-0.00002179,-0.00054292,-0.00640772,-0.00357868,0.02681426,-0.000089
 22,-0.00000724,0.00001783,0.00109278,-0.00132634,0.00007789,-0.0010269
 9,-0.00048345,0.00017279,-0.00546309,0.00168104,0.00205769,-0.00851991
 ,-0.03000598,0.00538530,-0.10639645,-0.10183213,0.02448788,0.01175859,
 0.01780776,-0.00375270,-0.00174457,0.00312503,0.00116214,-0.00086592,0
 .00080016,0.00000630,-0.00000294,0.00000488,-0.00002114,-0.00004316,0.
 00003411,0.00000499,0.00000264,0.00000996,0.00002163,0.00097736,0.0002
 0262,-0.00089523,0.10901567,-0.00008990,0.00003759,0.00001226,0.000746
 98,0.00005692,-0.00006193,-0.00027058,-0.00013758,0.00002038,-0.000119
 44,0.00175897,0.00067668,0.00113716,0.00199243,-0.00019902,-0.10187001
 ,-0.28371144,0.04716487,-0.01336592,-0.01876867,0.00484117,0.00441181,
 -0.00226318,0.00030415,0.00084886,0.00028860,-0.00021844,0.00000096,0.
 00000388,0.00000977,-0.00002170,0.00000569,0.00000409,-0.00000357,0.00
 000176,-0.00000851,-0.00041168,0.00083175,-0.00049183,0.10971259,0.300
 01679,0.00002754,-0.00000232,0.00000237,-0.00016597,0.00030361,0.00064
 342,0.00014763,0.00005788,-0.00040282,0.00226968,0.00035922,0.00688969
 ,0.00172153,0.00529105,0.00107880,0.02449234,0.04715815,-0.04530798,-0
 .00008539,-0.00065422,0.00244663,0.00101070,0.00053099,0.00669253,0.00
 000060,-0.00020984,-0.00027156,0.00000712,-0.00000084,0.00000785,0.000
 01156,-0.00000575,0.00000655,-0.00000456,-0.00000097,0.00000439,-0.000
 82298,-0.00060010,-0.00375013,-0.02763598,-0.05163965,0.03640927,-0.00
 007572,0.00000446,0.00004928,0.00015064,-0.00002141,-0.00026603,-0.000
 22232,-0.00003425,0.00008625,0.00067935,0.00016883,-0.00021528,0.00022
 754,0.00359727,0.00081183,-0.01329231,-0.00400052,0.00339014,-0.328235
 06,-0.01899992,0.05346178,-0.00858714,0.00164135,0.00190201,0.00111412
 ,-0.00251525,0.00136045,0.00003757,0.00000737,0.00001865,-0.00002467,-
 0.00001444,0.00000173,0.00000518,-0.00000687,-0.00003980,-0.00075881,-
 0.00023143,0.00017147,0.00075869,0.00013313,-0.00082928,0.34795677,0.0
 0001870,0.00001542,0.00001920,-0.00007158,-0.00019731,-0.00012564,-0.0
 0012306,0.00027183,0.00001842,0.00020768,-0.00131502,0.00006760,0.0026
 0965,-0.00414983,0.00087910,0.02697228,0.00676494,-0.00516609,-0.01909
 563,-0.06233572,0.00627087,-0.02923197,0.00332562,0.00514989,-0.001528
 43,-0.00509907,0.00171078,-0.00001746,0.00001055,-0.00004954,-0.000003
 72,0.00003353,-0.00000617,-0.00001584,0.00001654,0.00004319,0.00140950
 ,0.00015800,-0.00026007,-0.00058377,0.00093787,-0.00046112,0.02040691,
 0.06047021,0.00004760,0.00002172,0.00019578,-0.00026017,-0.00013452,-0
 .00131100,0.00009669,0.00000278,0.00022665,-0.00021980,0.00007445,-0.0
 0039915,0.00092790,0.00070492,0.00698682,-0.00025343,0.00029389,0.0032
 7912,0.05347301,0.00625402,-0.04780769,0.00553409,-0.00029258,0.002356
 46,0.00124428,0.00188482,0.00671185,0.00005172,0.00001318,-0.00004937,
 0.00000046,-0.00000428,-0.00002410,-0.00006890,-0.00002549,-0.00002297
 ,-0.00002155,0.00002920,0.00005979,-0.00074495,-0.00058750,-0.00365621
 ,-0.05920038,-0.00768162,0.03709289,-0.00050851,-0.00024076,0.00006968
 ,0.00032839,0.00218492,-0.00024309,-0.00014183,-0.00053129,0.00010773,
 -0.00490859,-0.00212452,0.00246080,-0.00065644,-0.00096353,0.00019912,
 -0.00038909,-0.00258973,0.00158742,0.01159329,-0.01257309,-0.00013371,
 -0.14924876,0.13089964,0.00447405,-0.01352697,0.02767084,-0.00041527,-
 0.00000055,0.00001651,-0.00001649,-0.00012256,0.00012784,-0.00000075,0
 .00002079,0.00000478,0.00001154,0.00004232,0.00011560,-0.00025605,0.00
 049354,-0.00071878,0.00005912,0.00071425,0.00039415,-0.00083059,0.1552
 7298,-0.00002195,0.00000987,-0.00002952,-0.00051140,0.00009197,0.00012
 729,0.00022092,0.00011990,-0.00003960,-0.00069558,0.00139318,0.0008567
 0,-0.00096666,0.00009923,0.00013876,-0.00381528,-0.00323163,0.00186300
 ,0.01849017,-0.01868063,-0.00077436,0.13061001,-0.24968393,0.00205307,
 -0.00297465,0.00607993,0.00011304,-0.00000996,-0.00000721,-0.00000758,
 0.00000409,0.00000425,-0.00000611,0.00000442,-0.00001494,0.00001193,0.
 00010104,0.00000402,-0.00017510,0.00098539,-0.00103655,-0.00001068,-0.
 00034722,0.00098251,-0.00049368,-0.14127076,0.26318543,0.00004390,0.00
 000906,-0.00028282,0.00007412,-0.00034809,0.00043551,0.00001923,0.0000
 9305,0.00010016,0.00229279,0.00110867,0.00709876,0.00019949,0.00013819
 ,-0.00022132,0.00173157,0.00164694,0.00638842,-0.00378806,0.00470163,0
 .00255892,0.00450808,0.00200201,-0.03754527,0.00318997,-0.00528931,0.0
 0264326,-0.00004621,0.00004322,0.00001021,0.00001379,-0.00002793,-0.00
 004072,0.00004443,-0.00004362,-0.00000341,-0.00025434,-0.00017767,-0.0
 0126726,-0.00014136,0.00028974,0.00034009,-0.00074336,-0.00062438,-0.0
 0352977,-0.00619868,-0.00301853,0.02728256,-0.00001222,-0.00049509,0.0
 0009207,0.00074143,0.00121646,-0.00094074,-0.00204374,-0.00062768,0.00
 036366,0.01363654,0.01510827,-0.00350266,-0.00239366,0.00326785,0.0010
 5494,-0.00085093,0.00075796,-0.00001130,-0.00495344,0.00102780,0.00210
 534,-0.00774558,-0.02767138,0.00530246,-0.11049232,-0.10813945,0.02518
 217,0.00012392,-0.00017499,0.00008280,-0.00000102,0.00001647,0.0000103
 4,0.00008229,-0.00018121,-0.00006958,0.00057599,0.00118185,-0.00011132
 ,0.00005297,-0.00011991,-0.00020366,-0.00044810,-0.00134742,0.00022403
 ,0.00103773,0.00019742,-0.00094537,0.11269012,0.00015858,0.00025655,-0
 .00003701,-0.00303482,-0.00325818,0.00047346,-0.00132360,0.00319464,-0
 .00018964,-0.01091833,-0.02048196,0.00478703,0.00420595,-0.00237954,0.
 00021750,0.00056929,0.00033724,-0.00018818,0.00059975,0.00146078,0.000
 62539,0.00155891,0.00395554,-0.00028519,-0.10675782,-0.28341849,0.0474
 7866,-0.00006430,0.00005558,-0.00005076,0.00007532,0.00000817,-0.00000
 617,-0.00005439,0.00007656,0.00006127,-0.00068313,-0.00100182,0.000324
 54,-0.00012462,-0.00001481,-0.00011539,0.00021199,0.00010993,-0.000059
 32,-0.00040182,0.00068460,-0.00050300,0.11598305,0.30041522,0.00001521
 ,0.00007824,0.00016769,-0.00044082,-0.00027616,-0.00367284,0.00044562,
 -0.00031212,-0.00044156,-0.00044084,0.00019869,0.00390304,0.00094465,0
 .00038291,0.00555993,0.00001081,-0.00022142,-0.00038507,0.00215568,0.0
 0054981,0.00723062,0.00186390,0.00486759,0.00296605,0.02501958,0.04772
 255,-0.04983188,0.00003267,-0.00000818,0.00000969,0.00000343,0.0000042
 1,0.00006756,-0.00004739,0.00006057,0.00003033,0.00010807,-0.00000423,
 0.00071468,-0.00020311,-0.00011621,-0.00113289,0.00004055,0.00021558,-
 0.00010910,-0.00087484,-0.00060862,-0.00396733,-0.02863317,-0.05253320
 ,0.03889108||-0.00010615,0.00002535,0.00002245,-0.00021051,-0.00021951
 ,0.00004203,0.00007010,0.00013032,-0.00002028,0.00005586,0.00000661,-0
 .00000484,0.00011130,0.00004317,-0.00002404,-0.00000708,-0.00000831,0.
 00000176,0.00000465,-0.00004863,0.00000494,0.00005724,0.00004111,-0.00
 001522,-0.00000585,0.00002882,-0.00000185,0.00004169,-0.00000100,0.000
 01251,0.00002955,-0.00002101,-0.00000247,0.00003370,-0.00000320,-0.000
 02524,-0.00002673,-0.00001214,0.00000643,-0.00001935,0.00000854,0.0000
 0234,0.00000133,0.00002197,-0.00000275,-0.00001457,0.00000090,0.000002
 41,-0.00001516,0.00000701,0.00000183|||@


 IF NO USE IS MADE OF THE LABOR OF PAST AGES,
 THE WORLD MUST REMAIN ALWAYS IN THE INFANCY OF KNOWLEDGE.

                          -- CICERO
 Job cpu time:       0 days  0 hours  2 minutes 38.0 seconds.
 File lengths (MBytes):  RWF=     50 Int=      0 D2E=      0 Chk=      3 Scr=      1
 Normal termination of Gaussian 09 at Fri Mar 20 17:37:26 2026.
