 Entering Gaussian System, Link 0=C:\G09W\g09.exe
 Input=acetophenone_rdkit.com
 Output=C:\workspace\delta_chem\data\raw\benchmark_new\acetophenone\acetophenone_rdkit.out
 Initial command:
 C:\G09W\l1.exe ".\Gau-17532.inp" "C:\workspace\delta_chem\data\raw\benchmark_new\acetophenone\acetophenone_rdkit.out" /scrdir=".\"
 Entering Link 1 = C:\G09W\l1.exe PID=      4780.
  
 Copyright (c) 1988,1990,1992,1993,1995,1998,2003,2009,2013,
            Gaussian, Inc.  All Rights Reserved.
  
 This is part of the Gaussian(R) 09 program.  It is based on
 the Gaussian(R) 03 system (copyright 2003, Gaussian, Inc.),
 the Gaussian(R) 98 system (copyright 1998, Gaussian, Inc.),
 the Gaussian(R) 94 system (copyright 1995, Gaussian, Inc.),
 the Gaussian 92(TM) system (copyright 1992, Gaussian, Inc.),
 the Gaussian 90(TM) system (copyright 1990, Gaussian, Inc.),
 the Gaussian 88(TM) system (copyright 1988, Gaussian, Inc.),
 the Gaussian 86(TM) system (copyright 1986, Carnegie Mellon
 University), and the Gaussian 82(TM) system (copyright 1983,
 Carnegie Mellon University). Gaussian is a federally registered
 trademark of Gaussian, Inc.
  
 This software contains proprietary and confidential information,
 including trade secrets, belonging to Gaussian, Inc.
  
 This software is provided under written license and may be
 used, copied, transmitted, or stored only in accord with that
 written license.
  
 The following legend is applicable only to US Government
 contracts under FAR:
  
                    RESTRICTED RIGHTS LEGEND
  
 Use, reproduction and disclosure by the US Government is
 subject to restrictions as set forth in subparagraphs (a)
 and (c) of the Commercial Computer Software - Restricted
 Rights clause in FAR 52.227-19.
  
 Gaussian, Inc.
 340 Quinnipiac St., Bldg. 40, Wallingford CT 06492
  
  
 ---------------------------------------------------------------
 Warning -- This program may not be used in any manner that
 competes with the business of Gaussian, Inc. or will provide
 assistance to any competitor of Gaussian, Inc.  The licensee
 of this program is prohibited from giving any competitor of
 Gaussian, Inc. access to this program.  By using this program,
 the user acknowledges that Gaussian, Inc. is engaged in the
 business of creating and licensing software in the field of
 computational chemistry and represents and warrants to the
 licensee that it is not a competitor of Gaussian, Inc. and that
 it will not use this program in any manner prohibited above.
 ---------------------------------------------------------------
  

 Cite this work as:
 Gaussian 09, Revision D.01,
 M. J. Frisch, G. W. Trucks, H. B. Schlegel, G. E. Scuseria, 
 M. A. Robb, J. R. Cheeseman, G. Scalmani, V. Barone, B. Mennucci, 
 G. A. Petersson, H. Nakatsuji, M. Caricato, X. Li, H. P. Hratchian, 
 A. F. Izmaylov, J. Bloino, G. Zheng, J. L. Sonnenberg, M. Hada, 
 M. Ehara, K. Toyota, R. Fukuda, J. Hasegawa, M. Ishida, T. Nakajima, 
 Y. Honda, O. Kitao, H. Nakai, T. Vreven, J. A. Montgomery, Jr., 
 J. E. Peralta, F. Ogliaro, M. Bearpark, J. J. Heyd, E. Brothers, 
 K. N. Kudin, V. N. Staroverov, T. Keith, R. Kobayashi, J. Normand, 
 K. Raghavachari, A. Rendell, J. C. Burant, S. S. Iyengar, J. Tomasi, 
 M. Cossi, N. Rega, J. M. Millam, M. Klene, J. E. Knox, J. B. Cross, 
 V. Bakken, C. Adamo, J. Jaramillo, R. Gomperts, R. E. Stratmann, 
 O. Yazyev, A. J. Austin, R. Cammi, C. Pomelli, J. W. Ochterski, 
 R. L. Martin, K. Morokuma, V. G. Zakrzewski, G. A. Voth, 
 P. Salvador, J. J. Dannenberg, S. Dapprich, A. D. Daniels, 
 O. Farkas, J. B. Foresman, J. V. Ortiz, J. Cioslowski, 
 and D. J. Fox, Gaussian, Inc., Wallingford CT, 2013.
 
 ******************************************
 Gaussian 09:  EM64W-G09RevD.01 13-Apr-2013
                20-Mar-2026 
 ******************************************
 %NProcShared=4
 Will use up to    4 processors via shared memory.
 %Mem=4GB
 %Chk=acetophenone_rdkit.chk
 --------------------------
 #p opt freq B3LYP/6-31G(d)
 --------------------------
 1/14=-1,18=20,19=15,26=3,38=1/1,3;
 2/9=110,12=2,17=6,18=5,40=1/2;
 3/5=1,6=6,7=1,11=2,16=1,25=1,30=1,71=1,74=-5/1,2,3;
 4//1;
 5/5=2,38=5/2;
 6/7=2,8=2,9=2,10=2,28=1/1;
 7//1,2,3,16;
 1/14=-1,18=20,19=15,26=3/3(2);
 2/9=110/2;
 99//99;
 2/9=110/2;
 3/5=1,6=6,7=1,11=2,16=1,25=1,30=1,71=1,74=-5/1,2,3;
 4/5=5,16=3,69=1/1;
 5/5=2,38=5/2;
 7//1,2,3,16;
 1/14=-1,18=20,19=15,26=3/3(-5);
 2/9=110/2;
 6/7=2,8=2,9=2,10=2,19=2,28=1/1;
 99/9=1/99;
 Leave Link    1 at Fri Mar 20 17:28:47 2026, MaxMem=   536870912 cpu:         0.0
 (Enter C:\G09W\l101.exe)
 ------------------
 acetophenone rdkit
 ------------------
 Symbolic Z-matrix:
 Charge =  0 Multiplicity = 1
 C                    -2.58407   0.77467   0.5043 
 C                    -1.7077   -0.45051   0.49396 
 O                    -2.17622  -1.567     0.70794 
 C                    -0.24822  -0.29352   0.21817 
 C                     0.3354    0.95488  -0.03158 
 C                     1.70703   1.04963  -0.28456 
 C                     2.50028  -0.09697  -0.28955 
 C                     1.9264   -1.34226  -0.04188 
 C                     0.55693  -1.44105   0.2112 
 H                    -2.5709    1.25852  -0.47572 
 H                    -3.6149    0.47707   0.72102 
 H                    -2.26023   1.46587   1.28666 
 H                    -0.25152   1.8683   -0.03554 
 H                     2.15828   2.02001  -0.47827 
 H                     3.56692  -0.0203   -0.48663 
 H                     2.54281  -2.23789  -0.04521 
 H                     0.11971  -2.41944   0.40338 
 
 NAtoms=     17 NQM=       17 NQMF=       0 NMMI=      0 NMMIF=      0
                NMic=       0 NMicF=      0.
                    Isotopes and Nuclear Properties:
 (Nuclear quadrupole moments (NQMom) in fm**2, nuclear magnetic moments (NMagM)
  in nuclear magnetons)

  Atom         1           2           3           4           5           6           7           8           9          10
 IAtWgt=          12          12          16          12          12          12          12          12          12           1
 AtmWgt=  12.0000000  12.0000000  15.9949146  12.0000000  12.0000000  12.0000000  12.0000000  12.0000000  12.0000000   1.0078250
 NucSpn=           0           0           0           0           0           0           0           0           0           1
 AtZEff=   0.0000000   0.0000000   0.0000000   0.0000000   0.0000000   0.0000000   0.0000000   0.0000000   0.0000000   0.0000000
 NQMom=    0.0000000   0.0000000   0.0000000   0.0000000   0.0000000   0.0000000   0.0000000   0.0000000   0.0000000   0.0000000
 NMagM=    0.0000000   0.0000000   0.0000000   0.0000000   0.0000000   0.0000000   0.0000000   0.0000000   0.0000000   2.7928460
 AtZNuc=   6.0000000   6.0000000   8.0000000   6.0000000   6.0000000   6.0000000   6.0000000   6.0000000   6.0000000   1.0000000

  Atom        11          12          13          14          15          16          17
 IAtWgt=           1           1           1           1           1           1           1
 AtmWgt=   1.0078250   1.0078250   1.0078250   1.0078250   1.0078250   1.0078250   1.0078250
 NucSpn=           1           1           1           1           1           1           1
 AtZEff=   0.0000000   0.0000000   0.0000000   0.0000000   0.0000000   0.0000000   0.0000000
 NQMom=    0.0000000   0.0000000   0.0000000   0.0000000   0.0000000   0.0000000   0.0000000
 NMagM=    2.7928460   2.7928460   2.7928460   2.7928460   2.7928460   2.7928460   2.7928460
 AtZNuc=   1.0000000   1.0000000   1.0000000   1.0000000   1.0000000   1.0000000   1.0000000
 Leave Link  101 at Fri Mar 20 17:28:48 2026, MaxMem=   536870912 cpu:         0.0
 (Enter C:\G09W\l103.exe)

 GradGradGradGradGradGradGradGradGradGradGradGradGradGradGradGradGradGrad
 Berny optimization.
 Initialization pass.
                           ----------------------------
                           !    Initial Parameters    !
                           ! (Angstroms and Degrees)  !
 --------------------------                            --------------------------
 ! Name  Definition              Value          Derivative Info.                !
 --------------------------------------------------------------------------------
 ! R1    R(1,2)                  1.5064         estimate D2E/DX2                !
 ! R2    R(1,10)                 1.093          estimate D2E/DX2                !
 ! R3    R(1,11)                 1.0946         estimate D2E/DX2                !
 ! R4    R(1,12)                 1.093          estimate D2E/DX2                !
 ! R5    R(2,3)                  1.2296         estimate D2E/DX2                !
 ! R6    R(2,4)                  1.4936         estimate D2E/DX2                !
 ! R7    R(4,5)                  1.4005         estimate D2E/DX2                !
 ! R8    R(4,9)                  1.4018         estimate D2E/DX2                !
 ! R9    R(5,6)                  1.398          estimate D2E/DX2                !
 ! R10   R(5,13)                 1.0857         estimate D2E/DX2                !
 ! R11   R(6,7)                  1.3943         estimate D2E/DX2                !
 ! R12   R(6,14)                 1.0876         estimate D2E/DX2                !
 ! R13   R(7,8)                  1.3933         estimate D2E/DX2                !
 ! R14   R(7,15)                 1.0874         estimate D2E/DX2                !
 ! R15   R(8,9)                  1.3962         estimate D2E/DX2                !
 ! R16   R(8,16)                 1.0873         estimate D2E/DX2                !
 ! R17   R(9,17)                 1.0887         estimate D2E/DX2                !
 ! A1    A(2,1,10)             110.2958         estimate D2E/DX2                !
 ! A2    A(2,1,11)             109.154          estimate D2E/DX2                !
 ! A3    A(2,1,12)             110.2958         estimate D2E/DX2                !
 ! A4    A(10,1,11)            108.0127         estimate D2E/DX2                !
 ! A5    A(10,1,12)            110.9932         estimate D2E/DX2                !
 ! A6    A(11,1,12)            108.0131         estimate D2E/DX2                !
 ! A7    A(1,2,3)              121.0409         estimate D2E/DX2                !
 ! A8    A(1,2,4)              118.9645         estimate D2E/DX2                !
 ! A9    A(3,2,4)              119.9946         estimate D2E/DX2                !
 ! A10   A(2,4,5)              122.2636         estimate D2E/DX2                !
 ! A11   A(2,4,9)              118.4324         estimate D2E/DX2                !
 ! A12   A(5,4,9)              119.304          estimate D2E/DX2                !
 ! A13   A(4,5,6)              120.1022         estimate D2E/DX2                !
 ! A14   A(4,5,13)             121.6885         estimate D2E/DX2                !
 ! A15   A(6,5,13)             118.2094         estimate D2E/DX2                !
 ! A16   A(5,6,7)              120.2069         estimate D2E/DX2                !
 ! A17   A(5,6,14)             119.9873         estimate D2E/DX2                !
 ! A18   A(7,6,14)             119.8058         estimate D2E/DX2                !
 ! A19   A(6,7,8)              120.001          estimate D2E/DX2                !
 ! A20   A(6,7,15)             120.049          estimate D2E/DX2                !
 ! A21   A(8,7,15)             119.9499         estimate D2E/DX2                !
 ! A22   A(7,8,9)              119.9641         estimate D2E/DX2                !
 ! A23   A(7,8,16)             120.1431         estimate D2E/DX2                !
 ! A24   A(9,8,16)             119.8928         estimate D2E/DX2                !
 ! A25   A(4,9,8)              120.4218         estimate D2E/DX2                !
 ! A26   A(4,9,17)             120.2712         estimate D2E/DX2                !
 ! A27   A(8,9,17)             119.307          estimate D2E/DX2                !
 ! D1    D(10,1,2,3)          -118.5225         estimate D2E/DX2                !
 ! D2    D(10,1,2,4)            61.4773         estimate D2E/DX2                !
 ! D3    D(11,1,2,3)            -0.0019         estimate D2E/DX2                !
 ! D4    D(11,1,2,4)           179.9979         estimate D2E/DX2                !
 ! D5    D(12,1,2,3)           118.5191         estimate D2E/DX2                !
 ! D6    D(12,1,2,4)           -61.4811         estimate D2E/DX2                !
 ! D7    D(1,2,4,5)              0.0023         estimate D2E/DX2                !
 ! D8    D(1,2,4,9)           -179.9976         estimate D2E/DX2                !
 ! D9    D(3,2,4,5)           -179.9979         estimate D2E/DX2                !
 ! D10   D(3,2,4,9)              0.0022         estimate D2E/DX2                !
 ! D11   D(2,4,5,6)           -179.9997         estimate D2E/DX2                !
 ! D12   D(2,4,5,13)             0.0004         estimate D2E/DX2                !
 ! D13   D(9,4,5,6)              0.0002         estimate D2E/DX2                !
 ! D14   D(9,4,5,13)          -179.9997         estimate D2E/DX2                !
 ! D15   D(2,4,9,8)            179.9997         estimate D2E/DX2                !
 ! D16   D(2,4,9,17)            -0.0001         estimate D2E/DX2                !
 ! D17   D(5,4,9,8)             -0.0003         estimate D2E/DX2                !
 ! D18   D(5,4,9,17)          -180.0            estimate D2E/DX2                !
 ! D19   D(4,5,6,7)             -0.0001         estimate D2E/DX2                !
 ! D20   D(4,5,6,14)          -180.0            estimate D2E/DX2                !
 ! D21   D(13,5,6,7)           179.9999         estimate D2E/DX2                !
 ! D22   D(13,5,6,14)            0.0            estimate D2E/DX2                !
 ! D23   D(5,6,7,8)             -0.0001         estimate D2E/DX2                !
 ! D24   D(5,6,7,15)           179.9999         estimate D2E/DX2                !
 ! D25   D(14,6,7,8)           179.9998         estimate D2E/DX2                !
 ! D26   D(14,6,7,15)           -0.0002         estimate D2E/DX2                !
 ! D27   D(6,7,8,9)              0.0001         estimate D2E/DX2                !
 ! D28   D(6,7,8,16)          -180.0            estimate D2E/DX2                !
 ! D29   D(15,7,8,9)          -179.9999         estimate D2E/DX2                !
 ! D30   D(15,7,8,16)            0.0            estimate D2E/DX2                !
 ! D31   D(7,8,9,4)              0.0001         estimate D2E/DX2                !
 ! D32   D(7,8,9,17)           179.9998         estimate D2E/DX2                !
 ! D33   D(16,8,9,4)          -179.9998         estimate D2E/DX2                !
 ! D34   D(16,8,9,17)           -0.0001         estimate D2E/DX2                !
 --------------------------------------------------------------------------------
 Trust Radius=3.00D-01 FncErr=1.00D-07 GrdErr=1.00D-06
 Number of steps in this run=     88 maximum allowed number of steps=    102.
 GradGradGradGradGradGradGradGradGradGradGradGradGradGradGradGradGradGrad

 Leave Link  103 at Fri Mar 20 17:28:48 2026, MaxMem=   536870912 cpu:         0.0
 (Enter C:\G09W\l202.exe)
                          Input orientation:                          
 ---------------------------------------------------------------------
 Center     Atomic      Atomic             Coordinates (Angstroms)
 Number     Number       Type             X           Y           Z
 ---------------------------------------------------------------------
      1          6           0       -2.584073    0.774668    0.504299
      2          6           0       -1.707701   -0.450512    0.493960
      3          8           0       -2.176220   -1.567000    0.707939
      4          6           0       -0.248220   -0.293523    0.218173
      5          6           0        0.335396    0.954875   -0.031575
      6          6           0        1.707029    1.049628   -0.284560
      7          6           0        2.500280   -0.096974   -0.289547
      8          6           0        1.926395   -1.342261   -0.041877
      9          6           0        0.556931   -1.441045    0.211200
     10          1           0       -2.570895    1.258522   -0.475718
     11          1           0       -3.614897    0.477067    0.721019
     12          1           0       -2.260227    1.465871    1.286661
     13          1           0       -0.251517    1.868300   -0.035538
     14          1           0        2.158283    2.020013   -0.478268
     15          1           0        3.566917   -0.020303   -0.486631
     16          1           0        2.542808   -2.237887   -0.045207
     17          1           0        0.119710   -2.419439    0.403376
 ---------------------------------------------------------------------
                    Distance matrix (angstroms):
                    1          2          3          4          5
     1  C    0.000000
     2  C    1.506387   0.000000
     3  O    2.385628   1.229570   0.000000
     4  C    2.584397   1.493583   2.361948   0.000000
     5  C    2.973707   2.534866   3.635237   1.400528   0.000000
     6  C    4.371665   3.810104   4.786587   2.424829   1.397983
     7  C    5.219253   4.294878   5.002560   2.801904   2.420673
     8  C    5.012386   3.780078   4.176623   2.428256   2.794319
     9  C    3.855022   2.487904   2.780778   1.401829   2.418357
    10  H    1.093033   2.146200   3.088752   2.878393   2.955671
    11  H    1.094592   2.132922   2.499634   3.490154   4.049631
    12  H    1.093036   2.146202   3.088735   2.878421   2.955693
    13  H    2.632161   2.788858   4.007309   2.176662   1.085738
    14  H    5.000626   4.689835   5.749927   3.410093   2.158002
    15  H    6.280812   5.382215   6.066539   3.889302   3.405991
    16  H    5.971796   4.642439   4.825613   3.411709   3.881570
    17  H    4.186042   2.687808   2.467935   2.165454   3.409061
                    6          7          8          9         10
     6  C    0.000000
     7  C    1.394263   0.000000
     8  C    2.414156   1.393350   0.000000
     9  C    2.787823   2.415343   1.396151   0.000000
    10  H    4.287285   5.252508   5.213243   4.188414   0.000000
    11  H    5.446275   6.224641   5.881996   4.619872   1.769969
    12  H    4.287320   5.252556   5.213293   4.188455   1.801524
    13  H    2.137320   3.391048   3.879567   3.415587   2.438258
    14  H    1.087566   2.152722   3.398396   3.875386   4.790094
    15  H    2.155172   1.087398   2.153298   3.400808   6.269629
    16  H    3.400525   2.155231   1.087254   2.155089   6.209684
    17  H    3.876501   3.397219   2.150040   1.088737   4.641073
                   11         12         13         14         15
    11  H    0.000000
    12  H    1.769976   0.000000
    13  H    3.717557   2.438252   0.000000
    14  H    6.094963   4.790123   2.454824   0.000000
    15  H    7.299606   6.269680   4.283777   2.479357   0.000000
    16  H    6.773139   6.209738   4.966802   4.297105   2.482203
    17  H    4.736870   4.641113   4.326102   4.964052   4.293158
                   16         17
    16  H    0.000000
    17  H    2.470950   0.000000
 Stoichiometry    C8H8O
 Framework group  C1[X(C8H8O)]
 Deg. of freedom    45
 Full point group                 C1      NOp   1
 Largest Abelian subgroup         C1      NOp   1
 Largest concise Abelian subgroup C1      NOp   1
                         Standard orientation:                         
 ---------------------------------------------------------------------
 Center     Atomic      Atomic             Coordinates (Angstroms)
 Number     Number       Type             X           Y           Z
 ---------------------------------------------------------------------
      1          6           0        2.547091    1.047718    0.000033
      2          6           0        1.696232   -0.195359   -0.000005
      3          8           0        2.207461   -1.313611   -0.000032
      4          6           0        0.209343   -0.054119   -0.000006
      5          6           0       -0.422939    1.195561   -0.000020
      6          6           0       -1.818653    1.275177   -0.000014
      7          6           0       -2.587624    0.112141    0.000006
      8          6           0       -1.965321   -1.134520    0.000017
      9          6           0       -0.571681   -1.218217    0.000010
     10          1           0        2.357278    1.637060    0.900793
     11          1           0        3.603206    0.760050    0.000066
     12          1           0        2.357331    1.637078   -0.900731
     13          1           0        0.143940    2.121561   -0.000038
     14          1           0       -2.307699    2.246585   -0.000025
     15          1           0       -3.673082    0.177059    0.000013
     16          1           0       -2.562718   -2.042946    0.000032
     17          1           0       -0.096629   -2.197847    0.000021
 ---------------------------------------------------------------------
 Rotational constants (GHZ):      3.6848287      1.2171424      0.9203802
 Leave Link  202 at Fri Mar 20 17:28:48 2026, MaxMem=   536870912 cpu:         0.0
 (Enter C:\G09W\l301.exe)
 Standard basis: 6-31G(d) (6D, 7F)
 Ernie: Thresh=  0.10000D-02 Tol=  0.10000D-05 Strict=F.
 There are   151 symmetry adapted cartesian basis functions of A   symmetry.
 There are   151 symmetry adapted basis functions of A   symmetry.
   151 basis functions,   284 primitive gaussians,   151 cartesian basis functions
    32 alpha electrons       32 beta electrons
       nuclear repulsion energy       400.9897638020 Hartrees.
 IExCor=  402 DFT=T Ex+Corr=B3LYP ExCW=0 ScaHFX=  0.200000
 ScaDFX=  0.800000  0.720000  1.000000  0.810000 ScalE2=  1.000000  1.000000
 IRadAn=      0 IRanWt=     -1 IRanGd=            0 ICorTp=0 IEmpDi=  4
 NAtoms=   17 NActive=   17 NUniq=   17 SFac= 1.00D+00 NAtFMM=   60 NAOKFM=F Big=F
 Integral buffers will be    131072 words long.
 Raffenetti 2 integral format.
 Two-electron integral symmetry is turned on.
 Leave Link  301 at Fri Mar 20 17:28:48 2026, MaxMem=   536870912 cpu:         0.0
 (Enter C:\G09W\l302.exe)
 NPDir=0 NMtPBC=     1 NCelOv=     1 NCel=       1 NClECP=     1 NCelD=      1
         NCelK=      1 NCelE2=     1 NClLst=     1 CellRange=     0.0.
 One-electron integrals computed using PRISM.
 NBasis=   151 RedAO= T EigKep=  4.71D-04  NBF=   151
 NBsUse=   151 1.00D-06 EigRej= -1.00D+00 NBFU=   151
 Precomputing XC quadrature grid using
 IXCGrd= 4 IRadAn=           0 IRanWt=          -1 IRanGd=           0 AccXCQ= 0.00D+00.
 Generated NRdTot=       0 NPtTot=           0 NUsed=           0 NTot=          32
 NSgBfM=   151   151   151   151   151 MxSgAt=    17 MxSgA2=    17.
 Leave Link  302 at Fri Mar 20 17:28:49 2026, MaxMem=   536870912 cpu:         0.0
 (Enter C:\G09W\l303.exe)
 DipDrv:  MaxL=1.
 Leave Link  303 at Fri Mar 20 17:28:49 2026, MaxMem=   536870912 cpu:         0.0
 (Enter C:\G09W\l401.exe)
 ExpMin= 1.61D-01 ExpMax= 5.48D+03 ExpMxC= 8.25D+02 IAcc=1 IRadAn=         1 AccDes= 0.00D+00
 Harris functional with IExCor=  402 and IRadAn=       1 diagonalized for initial guess.
 HarFok:  IExCor=  402 AccDes= 0.00D+00 IRadAn=         1 IDoV= 1 UseB2=F ITyADJ=14
 ICtDFT=  3500011 ScaDFX=  1.000000  1.000000  1.000000  1.000000
 FoFCou: FMM=F IPFlag=           0 FMFlag=      100000 FMFlg1=           0
         NFxFlg=           0 DoJE=T BraDBF=F KetDBF=T FulRan=T
         wScrn=  0.000000 ICntrl=     500 IOpCl=  0 I1Cent=   200000004 NGrid=           0
         NMat0=    1 NMatS0=      1 NMatT0=    0 NMatD0=    1 NMtDS0=    0 NMtDT0=    0
 Petite list used in FoFCou.
 Harris En= -384.930649473163    
 JPrj=0 DoOrth=F DoCkMO=F.
 Leave Link  401 at Fri Mar 20 17:28:50 2026, MaxMem=   536870912 cpu:         1.0
 (Enter C:\G09W\l502.exe)
 Closed shell SCF:
 Using DIIS extrapolation, IDIIS=  1040.
 Integral symmetry usage will be decided dynamically.
 Keep R1 ints in memory in canonical form, NReq=67699856.
 IVT=       89002 IEndB=       89002 NGot=   536870912 MDV=   470926885
 LenX=   470926885 LenY=   470903643
 Requested convergence on RMS density matrix=1.00D-08 within 128 cycles.
 Requested convergence on MAX density matrix=1.00D-06.
 Requested convergence on             energy=1.00D-06.
 No special actions if energy rises.
 FoFCou: FMM=F IPFlag=           0 FMFlag=           0 FMFlg1=           0
         NFxFlg=           0 DoJE=F BraDBF=F KetDBF=F FulRan=T
         wScrn=  0.000000 ICntrl=     600 IOpCl=  0 I1Cent=           0 NGrid=           0
         NMat0=    1 NMatS0=  11476 NMatT0=    0 NMatD0=    1 NMtDS0=    0 NMtDT0=    0
 Symmetry not used in FoFCou.
 Integral accuracy reduced to 1.0D-05 until final iterations.

 Cycle   1  Pass 0  IDiag  1:
 E= -384.662810539489    
 DIIS: error= 4.59D-02 at cycle   1 NSaved=   1.
 NSaved= 1 IEnMin= 1 EnMin= -384.662810539489     IErMin= 1 ErrMin= 4.59D-02
 ErrMax= 4.59D-02  0.00D+00 EMaxC= 1.00D-01 BMatC= 2.34D-01 BMatP= 2.34D-01
 IDIUse=3 WtCom= 5.41D-01 WtEn= 4.59D-01
 Coeff-Com:  0.100D+01
 Coeff-En:   0.100D+01
 Coeff:      0.100D+01
 Gap=     0.178 Goal=   None    Shift=    0.000
 GapD=    0.178 DampG=1.000 DampE=0.500 DampFc=0.5000 IDamp=-1.
 Damping current iteration by 5.00D-01
 RMSDP=7.92D-03 MaxDP=1.87D-01              OVMax= 2.18D-01

 Cycle   2  Pass 0  IDiag  1:
 E= -384.753844064996     Delta-E=       -0.091033525507 Rises=F Damp=T
 DIIS: error= 1.41D-02 at cycle   2 NSaved=   2.
 NSaved= 2 IEnMin= 2 EnMin= -384.753844064996     IErMin= 2 ErrMin= 1.41D-02
 ErrMax= 1.41D-02  0.00D+00 EMaxC= 1.00D-01 BMatC= 2.65D-02 BMatP= 2.34D-01
 IDIUse=3 WtCom= 8.59D-01 WtEn= 1.41D-01
 Coeff-Com:  0.145D+00 0.855D+00
 Coeff-En:   0.195D+00 0.805D+00
 Coeff:      0.152D+00 0.848D+00
 Gap=     0.205 Goal=   None    Shift=    0.000
 RMSDP=2.36D-03 MaxDP=5.83D-02 DE=-9.10D-02 OVMax= 1.70D-01

 Cycle   3  Pass 0  IDiag  1:
 E= -384.863779100632     Delta-E=       -0.109935035637 Rises=F Damp=F
 DIIS: error= 2.48D-02 at cycle   3 NSaved=   3.
 NSaved= 3 IEnMin= 3 EnMin= -384.863779100632     IErMin= 2 ErrMin= 1.41D-02
 ErrMax= 2.48D-02  0.00D+00 EMaxC= 1.00D-01 BMatC= 3.65D-02 BMatP= 2.65D-02
 IDIUse=2 WtCom= 0.00D+00 WtEn= 1.00D+00
 Coeff-En:   0.000D+00 0.000D+00 0.100D+01
 Coeff:      0.000D+00 0.000D+00 0.100D+01
 Gap=     0.206 Goal=   None    Shift=    0.000
 RMSDP=4.25D-03 MaxDP=1.42D-01 DE=-1.10D-01 OVMax= 1.93D-01

 Cycle   4  Pass 0  IDiag  1:
 E= -384.715783915387     Delta-E=        0.147995185246 Rises=F Damp=F
 DIIS: error= 5.84D-02 at cycle   4 NSaved=   4.
 NSaved= 4 IEnMin= 3 EnMin= -384.863779100632     IErMin= 2 ErrMin= 1.41D-02
 ErrMax= 5.84D-02  0.00D+00 EMaxC= 1.00D-01 BMatC= 2.20D-01 BMatP= 2.65D-02
 IDIUse=2 WtCom= 0.00D+00 WtEn= 1.00D+00
 Coeff-En:   0.000D+00 0.000D+00 0.796D+00 0.204D+00
 Coeff:      0.000D+00 0.000D+00 0.796D+00 0.204D+00
 Gap=     0.176 Goal=   None    Shift=    0.000
 RMSDP=2.39D-03 MaxDP=7.34D-02 DE= 1.48D-01 OVMax= 1.14D-01

 Cycle   5  Pass 0  IDiag  1:
 E= -384.881668142079     Delta-E=       -0.165884226692 Rises=F Damp=F
 DIIS: error= 1.64D-02 at cycle   5 NSaved=   5.
 NSaved= 5 IEnMin= 5 EnMin= -384.881668142079     IErMin= 2 ErrMin= 1.41D-02
 ErrMax= 1.64D-02  0.00D+00 EMaxC= 1.00D-01 BMatC= 1.62D-02 BMatP= 2.65D-02
 IDIUse=3 WtCom= 8.36D-01 WtEn= 1.64D-01
 Coeff-Com: -0.622D-02 0.316D-01 0.286D+00-0.112D+00 0.800D+00
 Coeff-En:   0.000D+00 0.000D+00 0.345D+00 0.000D+00 0.655D+00
 Coeff:     -0.520D-02 0.264D-01 0.296D+00-0.934D-01 0.776D+00
 Gap=     0.192 Goal=   None    Shift=    0.000
 RMSDP=8.15D-04 MaxDP=2.77D-02 DE=-1.66D-01 OVMax= 4.12D-02

 Cycle   6  Pass 0  IDiag  1:
 E= -384.895016074309     Delta-E=       -0.013347932230 Rises=F Damp=F
 DIIS: error= 5.73D-04 at cycle   6 NSaved=   6.
 NSaved= 6 IEnMin= 6 EnMin= -384.895016074309     IErMin= 6 ErrMin= 5.73D-04
 ErrMax= 5.73D-04  0.00D+00 EMaxC= 1.00D-01 BMatC= 3.62D-05 BMatP= 1.62D-02
 IDIUse=3 WtCom= 9.94D-01 WtEn= 5.73D-03
 Coeff-Com: -0.395D-02 0.125D-01 0.122D+00-0.526D-01 0.378D+00 0.544D+00
 Coeff-En:   0.000D+00 0.000D+00 0.000D+00 0.000D+00 0.000D+00 0.100D+01
 Coeff:     -0.393D-02 0.124D-01 0.121D+00-0.523D-01 0.376D+00 0.546D+00
 Gap=     0.191 Goal=   None    Shift=    0.000
 RMSDP=5.43D-05 MaxDP=1.27D-03 DE=-1.33D-02 OVMax= 2.83D-03

 Cycle   7  Pass 0  IDiag  1:
 E= -384.895045964558     Delta-E=       -0.000029890249 Rises=F Damp=F
 DIIS: error= 2.17D-04 at cycle   7 NSaved=   7.
 NSaved= 7 IEnMin= 7 EnMin= -384.895045964558     IErMin= 7 ErrMin= 2.17D-04
 ErrMax= 2.17D-04  0.00D+00 EMaxC= 1.00D-01 BMatC= 4.96D-06 BMatP= 3.62D-05
 IDIUse=3 WtCom= 9.98D-01 WtEn= 2.17D-03
 Coeff-Com: -0.120D-02 0.226D-02 0.389D-01-0.170D-01 0.125D+00 0.338D+00
 Coeff-Com:  0.514D+00
 Coeff-En:   0.000D+00 0.000D+00 0.000D+00 0.000D+00 0.000D+00 0.150D+00
 Coeff-En:   0.850D+00
 Coeff:     -0.120D-02 0.226D-02 0.388D-01-0.170D-01 0.125D+00 0.338D+00
 Coeff:      0.514D+00
 Gap=     0.191 Goal=   None    Shift=    0.000
 RMSDP=1.66D-05 MaxDP=3.95D-04 DE=-2.99D-05 OVMax= 9.87D-04

 Cycle   8  Pass 0  IDiag  1:
 E= -384.895051094115     Delta-E=       -0.000005129557 Rises=F Damp=F
 DIIS: error= 3.67D-05 at cycle   8 NSaved=   8.
 NSaved= 8 IEnMin= 8 EnMin= -384.895051094115     IErMin= 8 ErrMin= 3.67D-05
 ErrMax= 3.67D-05  0.00D+00 EMaxC= 1.00D-01 BMatC= 2.76D-07 BMatP= 4.96D-06
 IDIUse=1 WtCom= 1.00D+00 WtEn= 0.00D+00
 Coeff-Com: -0.238D-03 0.381D-04 0.120D-01-0.497D-02 0.376D-01 0.141D+00
 Coeff-Com:  0.278D+00 0.536D+00
 Coeff:     -0.238D-03 0.381D-04 0.120D-01-0.497D-02 0.376D-01 0.141D+00
 Coeff:      0.278D+00 0.536D+00
 Gap=     0.191 Goal=   None    Shift=    0.000
 RMSDP=3.61D-06 MaxDP=8.41D-05 DE=-5.13D-06 OVMax= 1.68D-04

 Initial convergence to 1.0D-05 achieved.  Increase integral accuracy.
 Cycle   9  Pass 1  IDiag  1:
 E= -384.895090779875     Delta-E=       -0.000039685760 Rises=F Damp=F
 DIIS: error= 1.73D-05 at cycle   1 NSaved=   1.
 NSaved= 1 IEnMin= 1 EnMin= -384.895090779875     IErMin= 1 ErrMin= 1.73D-05
 ErrMax= 1.73D-05  0.00D+00 EMaxC= 1.00D-01 BMatC= 5.37D-08 BMatP= 5.37D-08
 IDIUse=1 WtCom= 1.00D+00 WtEn= 0.00D+00
 Coeff-Com:  0.100D+01
 Coeff:      0.100D+01
 Gap=     0.192 Goal=   None    Shift=    0.000
 RMSDP=3.61D-06 MaxDP=8.41D-05 DE=-3.97D-05 OVMax= 1.20D-04

 Cycle  10  Pass 1  IDiag  1:
 E= -384.895090806001     Delta-E=       -0.000000026126 Rises=F Damp=F
 DIIS: error= 2.18D-05 at cycle   2 NSaved=   2.
 NSaved= 2 IEnMin= 2 EnMin= -384.895090806001     IErMin= 1 ErrMin= 1.73D-05
 ErrMax= 2.18D-05  0.00D+00 EMaxC= 1.00D-01 BMatC= 4.77D-08 BMatP= 5.37D-08
 IDIUse=1 WtCom= 1.00D+00 WtEn= 0.00D+00
 Coeff-Com:  0.480D+00 0.520D+00
 Coeff:      0.480D+00 0.520D+00
 Gap=     0.191 Goal=   None    Shift=    0.000
 RMSDP=2.22D-06 MaxDP=6.77D-05 DE=-2.61D-08 OVMax= 1.04D-04

 Cycle  11  Pass 1  IDiag  1:
 E= -384.895090832707     Delta-E=       -0.000000026706 Rises=F Damp=F
 DIIS: error= 1.57D-05 at cycle   3 NSaved=   3.
 NSaved= 3 IEnMin= 3 EnMin= -384.895090832707     IErMin= 3 ErrMin= 1.57D-05
 ErrMax= 1.57D-05  0.00D+00 EMaxC= 1.00D-01 BMatC= 1.81D-08 BMatP= 4.77D-08
 IDIUse=1 WtCom= 1.00D+00 WtEn= 0.00D+00
 Coeff-Com:  0.300D-01 0.375D+00 0.595D+00
 Coeff:      0.300D-01 0.375D+00 0.595D+00
 Gap=     0.191 Goal=   None    Shift=    0.000
 RMSDP=1.10D-06 MaxDP=3.57D-05 DE=-2.67D-08 OVMax= 5.33D-05

 Cycle  12  Pass 1  IDiag  1:
 E= -384.895090846536     Delta-E=       -0.000000013829 Rises=F Damp=F
 DIIS: error= 4.43D-06 at cycle   4 NSaved=   4.
 NSaved= 4 IEnMin= 4 EnMin= -384.895090846536     IErMin= 4 ErrMin= 4.43D-06
 ErrMax= 4.43D-06  0.00D+00 EMaxC= 1.00D-01 BMatC= 2.25D-09 BMatP= 1.81D-08
 IDIUse=1 WtCom= 1.00D+00 WtEn= 0.00D+00
 Coeff-Com: -0.165D-01 0.198D+00 0.387D+00 0.432D+00
 Coeff:     -0.165D-01 0.198D+00 0.387D+00 0.432D+00
 Gap=     0.191 Goal=   None    Shift=    0.000
 RMSDP=2.91D-07 MaxDP=7.36D-06 DE=-1.38D-08 OVMax= 1.15D-05

 Cycle  13  Pass 1  IDiag  1:
 E= -384.895090848483     Delta-E=       -0.000000001947 Rises=F Damp=F
 DIIS: error= 6.32D-07 at cycle   5 NSaved=   5.
 NSaved= 5 IEnMin= 5 EnMin= -384.895090848483     IErMin= 5 ErrMin= 6.32D-07
 ErrMax= 6.32D-07  0.00D+00 EMaxC= 1.00D-01 BMatC= 3.46D-11 BMatP= 2.25D-09
 IDIUse=1 WtCom= 1.00D+00 WtEn= 0.00D+00
 Coeff-Com: -0.897D-02 0.722D-01 0.155D+00 0.193D+00 0.589D+00
 Coeff:     -0.897D-02 0.722D-01 0.155D+00 0.193D+00 0.589D+00
 Gap=     0.191 Goal=   None    Shift=    0.000
 RMSDP=5.52D-08 MaxDP=9.18D-07 DE=-1.95D-09 OVMax= 2.89D-06

 Cycle  14  Pass 1  IDiag  1:
 E= -384.895090848521     Delta-E=       -0.000000000038 Rises=F Damp=F
 DIIS: error= 2.31D-07 at cycle   6 NSaved=   6.
 NSaved= 6 IEnMin= 6 EnMin= -384.895090848521     IErMin= 6 ErrMin= 2.31D-07
 ErrMax= 2.31D-07  0.00D+00 EMaxC= 1.00D-01 BMatC= 5.56D-12 BMatP= 3.46D-11
 IDIUse=1 WtCom= 1.00D+00 WtEn= 0.00D+00
 Coeff-Com: -0.403D-02 0.286D-01 0.647D-01 0.829D-01 0.348D+00 0.480D+00
 Coeff:     -0.403D-02 0.286D-01 0.647D-01 0.829D-01 0.348D+00 0.480D+00
 Gap=     0.191 Goal=   None    Shift=    0.000
 RMSDP=2.03D-08 MaxDP=4.92D-07 DE=-3.79D-11 OVMax= 1.27D-06

 Cycle  15  Pass 1  IDiag  1:
 E= -384.895090848520     Delta-E=        0.000000000001 Rises=F Damp=F
 DIIS: error= 6.60D-08 at cycle   7 NSaved=   7.
 NSaved= 7 IEnMin= 6 EnMin= -384.895090848521     IErMin= 7 ErrMin= 6.60D-08
 ErrMax= 6.60D-08  0.00D+00 EMaxC= 1.00D-01 BMatC= 3.86D-13 BMatP= 5.56D-12
 IDIUse=1 WtCom= 1.00D+00 WtEn= 0.00D+00
 Coeff-Com: -0.774D-03 0.432D-02 0.112D-01 0.143D-01 0.914D-01 0.244D+00
 Coeff-Com:  0.635D+00
 Coeff:     -0.774D-03 0.432D-02 0.112D-01 0.143D-01 0.914D-01 0.244D+00
 Coeff:      0.635D+00
 Gap=     0.191 Goal=   None    Shift=    0.000
 RMSDP=6.64D-09 MaxDP=1.48D-07 DE= 1.36D-12 OVMax= 3.65D-07

 SCF Done:  E(RB3LYP) =  -384.895090849     A.U. after   15 cycles
            NFock= 15  Conv=0.66D-08     -V/T= 2.0096
 KE= 3.812350003235D+02 PE=-1.696025357277D+03 EE= 5.289055023026D+02
 Leave Link  502 at Fri Mar 20 17:29:08 2026, MaxMem=   536870912 cpu:        18.0
 (Enter C:\G09W\l601.exe)
 Copying SCF densities to generalized density rwf, IOpCl= 0 IROHF=0.

 **********************************************************************

            Population analysis using the SCF density.

 **********************************************************************

 Orbital symmetries:
       Occupied  (A) (A) (A) (A) (A) (A) (A) (A) (A) (A) (A) (A)
                 (A) (A) (A) (A) (A) (A) (A) (A) (A) (A) (A) (A)
                 (A) (A) (A) (A) (A) (A) (A) (A)
       Virtual   (A) (A) (A) (A) (A) (A) (A) (A) (A) (A) (A) (A)
                 (A) (A) (A) (A) (A) (A) (A) (A) (A) (A) (A) (A)
                 (A) (A) (A) (A) (A) (A) (A) (A) (A) (A) (A) (A)
                 (A) (A) (A) (A) (A) (A) (A) (A) (A) (A) (A) (A)
                 (A) (A) (A) (A) (A) (A) (A) (A) (A) (A) (A) (A)
                 (A) (A) (A) (A) (A) (A) (A) (A) (A) (A) (A) (A)
                 (A) (A) (A) (A) (A) (A) (A) (A) (A) (A) (A) (A)
                 (A) (A) (A) (A) (A) (A) (A) (A) (A) (A) (A) (A)
                 (A) (A) (A) (A) (A) (A) (A) (A) (A) (A) (A) (A)
                 (A) (A) (A) (A) (A) (A) (A) (A) (A) (A) (A)
 The electronic state is 1-A.
 Alpha  occ. eigenvalues --  -19.13200 -10.27364 -10.20448 -10.20250 -10.20119
 Alpha  occ. eigenvalues --  -10.20025 -10.19805 -10.19727 -10.18888  -1.02795
 Alpha  occ. eigenvalues --   -0.86280  -0.77557  -0.75310  -0.73300  -0.63055
 Alpha  occ. eigenvalues --   -0.61045  -0.55387  -0.51158  -0.46644  -0.45811
 Alpha  occ. eigenvalues --   -0.44904  -0.44815  -0.42849  -0.41106  -0.38909
 Alpha  occ. eigenvalues --   -0.38028  -0.35842  -0.34993  -0.34904  -0.26120
 Alpha  occ. eigenvalues --   -0.25699  -0.24570
 Alpha virt. eigenvalues --   -0.05422  -0.00925   0.04153   0.08539   0.11173
 Alpha virt. eigenvalues --    0.14143   0.15001   0.15724   0.15983   0.17959
 Alpha virt. eigenvalues --    0.18486   0.19314   0.22626   0.27073   0.28988
 Alpha virt. eigenvalues --    0.30300   0.31584   0.34916   0.37009   0.47876
 Alpha virt. eigenvalues --    0.51051   0.51831   0.53026   0.54319   0.55514
 Alpha virt. eigenvalues --    0.56492   0.58503   0.58569   0.59942   0.60042
 Alpha virt. eigenvalues --    0.60746   0.61537   0.64737   0.66660   0.66927
 Alpha virt. eigenvalues --    0.69452   0.72948   0.75439   0.77009   0.81790
 Alpha virt. eigenvalues --    0.82404   0.82830   0.84322   0.85734   0.87686
 Alpha virt. eigenvalues --    0.89410   0.90345   0.92885   0.94132   0.95834
 Alpha virt. eigenvalues --    0.98463   1.02702   1.02851   1.06208   1.08819
 Alpha virt. eigenvalues --    1.13037   1.15951   1.18500   1.24540   1.28561
 Alpha virt. eigenvalues --    1.31064   1.32342   1.41885   1.42454   1.42835
 Alpha virt. eigenvalues --    1.45204   1.45805   1.47843   1.48358   1.50353
 Alpha virt. eigenvalues --    1.66000   1.68954   1.76352   1.77054   1.80225
 Alpha virt. eigenvalues --    1.83692   1.86332   1.88347   1.90469   1.93404
 Alpha virt. eigenvalues --    1.96978   1.99513   2.02960   2.04654   2.06600
 Alpha virt. eigenvalues --    2.13493   2.14098   2.15070   2.17961   2.24740
 Alpha virt. eigenvalues --    2.27174   2.28042   2.28632   2.29675   2.39069
 Alpha virt. eigenvalues --    2.43864   2.50997   2.58374   2.58437   2.59875
 Alpha virt. eigenvalues --    2.65510   2.66804   2.74023   2.74463   2.77334
 Alpha virt. eigenvalues --    2.86981   2.96986   2.97900   3.15656   3.41480
 Alpha virt. eigenvalues --    3.96604   4.07677   4.10329   4.12601   4.22539
 Alpha virt. eigenvalues --    4.31045   4.33620   4.49214   4.70896
          Condensed to atoms (all electrons):
               1          2          3          4          5          6
     1  C    5.391462   0.315047  -0.093076  -0.127264  -0.010744  -0.000133
     2  C    0.315047   4.563483   0.579317   0.274840  -0.042277   0.004488
     3  O   -0.093076   0.579317   8.030712  -0.091313   0.004518  -0.000065
     4  C   -0.127264   0.274840  -0.091313   5.011814   0.500354  -0.012142
     5  C   -0.010744  -0.042277   0.004518   0.500354   5.043852   0.519002
     6  C   -0.000133   0.004488  -0.000065  -0.012142   0.519002   4.864680
     7  C   -0.000018   0.000092  -0.000021  -0.035914  -0.035396   0.550350
     8  C   -0.000102   0.007029   0.001209  -0.021284  -0.040038  -0.027382
     9  C    0.011267  -0.029191   0.000865   0.485518  -0.083261  -0.041054
    10  H    0.348295  -0.017929   0.001484   0.002080   0.000573   0.000094
    11  H    0.349280  -0.019634   0.006132   0.005457   0.000142   0.000000
    12  H    0.348295  -0.017928   0.001483   0.002080   0.000573   0.000094
    13  H    0.008059  -0.012346   0.000054  -0.038215   0.353867  -0.045531
    14  H    0.000009  -0.000112   0.000000   0.003497  -0.039390   0.358789
    15  H    0.000000   0.000009   0.000000   0.000646   0.004849  -0.042690
    16  H    0.000002  -0.000137   0.000004   0.003461   0.000791   0.004654
    17  H    0.000685  -0.009219   0.015723  -0.041545   0.005590   0.000301
               7          8          9         10         11         12
     1  C   -0.000018  -0.000102   0.011267   0.348295   0.349280   0.348295
     2  C    0.000092   0.007029  -0.029191  -0.017929  -0.019634  -0.017928
     3  O   -0.000021   0.001209   0.000865   0.001484   0.006132   0.001483
     4  C   -0.035914  -0.021284   0.485518   0.002080   0.005457   0.002080
     5  C   -0.035396  -0.040038  -0.083261   0.000573   0.000142   0.000573
     6  C    0.550350  -0.027382  -0.041054   0.000094   0.000000   0.000094
     7  C    4.849569   0.536850  -0.030341   0.000002   0.000000   0.000002
     8  C    0.536850   4.910457   0.485106  -0.000006   0.000001  -0.000006
     9  C   -0.030341   0.485106   5.032609  -0.000368  -0.000138  -0.000368
    10  H    0.000002  -0.000006  -0.000368   0.539781  -0.022723  -0.024792
    11  H    0.000000   0.000001  -0.000138  -0.022723   0.522851  -0.022722
    12  H    0.000002  -0.000006  -0.000368  -0.024792  -0.022722   0.539779
    13  H    0.004761   0.000320   0.005499   0.001148  -0.000079   0.001148
    14  H   -0.042717   0.004667   0.000748  -0.000005   0.000000  -0.000005
    15  H    0.359598  -0.042957   0.004471   0.000000   0.000000   0.000000
    16  H   -0.043702   0.360727  -0.039743   0.000000   0.000000   0.000000
    17  H    0.004429  -0.043885   0.356346  -0.000020  -0.000015  -0.000020
              13         14         15         16         17
     1  C    0.008059   0.000009   0.000000   0.000002   0.000685
     2  C   -0.012346  -0.000112   0.000009  -0.000137  -0.009219
     3  O    0.000054   0.000000   0.000000   0.000004   0.015723
     4  C   -0.038215   0.003497   0.000646   0.003461  -0.041545
     5  C    0.353867  -0.039390   0.004849   0.000791   0.005590
     6  C   -0.045531   0.358789  -0.042690   0.004654   0.000301
     7  C    0.004761  -0.042717   0.359598  -0.043702   0.004429
     8  C    0.000320   0.004667  -0.042957   0.360727  -0.043885
     9  C    0.005499   0.000748   0.004471  -0.039743   0.356346
    10  H    0.001148  -0.000005   0.000000   0.000000  -0.000020
    11  H   -0.000079   0.000000   0.000000   0.000000  -0.000015
    12  H    0.001148  -0.000005   0.000000   0.000000  -0.000020
    13  H    0.590146  -0.005403  -0.000180   0.000016  -0.000141
    14  H   -0.005403   0.590509  -0.005570  -0.000179   0.000016
    15  H   -0.000180  -0.005570   0.590321  -0.005488  -0.000164
    16  H    0.000016  -0.000179  -0.005488   0.586249  -0.004791
    17  H   -0.000141   0.000016  -0.000164  -0.004791   0.551876
 Mulliken charges:
               1
     1  C   -0.541063
     2  C    0.404468
     3  O   -0.457026
     4  C    0.077931
     5  C   -0.183003
     6  C   -0.133455
     7  C   -0.117545
     8  C   -0.130706
     9  C   -0.157964
    10  H    0.172384
    11  H    0.181446
    12  H    0.172384
    13  H    0.136877
    14  H    0.135145
    15  H    0.137157
    16  H    0.138137
    17  H    0.164834
 Sum of Mulliken charges =   0.00000
 Mulliken charges with hydrogens summed into heavy atoms:
               1
     1  C   -0.014849
     2  C    0.404468
     3  O   -0.457026
     4  C    0.077931
     5  C   -0.046126
     6  C    0.001689
     7  C    0.019612
     8  C    0.007431
     9  C    0.006870
 Electronic spatial extent (au):  <R**2>=           1232.5309
 Charge=              0.0000 electrons
 Dipole moment (field-independent basis, Debye):
    X=             -1.8640    Y=              2.3791    Z=              0.0001  Tot=              3.0224
 Quadrupole moment (field-independent basis, Debye-Ang):
   XX=            -50.3439   YY=            -50.1181   ZZ=            -53.9681
   XY=              6.3310   XZ=              0.0001   YZ=             -0.0002
 Traceless Quadrupole moment (field-independent basis, Debye-Ang):
   XX=              1.1328   YY=              1.3586   ZZ=             -2.4914
   XY=              6.3310   XZ=              0.0001   YZ=             -0.0002
 Octapole moment (field-independent basis, Debye-Ang**2):
  XXX=            -13.6632  YYY=             -0.3717  ZZZ=             -0.0001  XYY=             -9.0041
  XXY=             12.6357  XXZ=              0.0005  XZZ=              9.0923  YZZ=             -1.0813
  YYZ=              0.0000  XYZ=             -0.0001
 Hexadecapole moment (field-independent basis, Debye-Ang**3):
 XXXX=          -1088.4108 YYYY=           -403.1520 ZZZZ=            -60.0000 XXXY=             23.3701
 XXXZ=              0.0006 YYYX=              0.7754 YYYZ=             -0.0008 ZZZX=             -0.0003
 ZZZY=              0.0003 XXYY=           -265.0079 XXZZ=           -207.8371 YYZZ=            -83.2149
 XXYZ=             -0.0009 YYXZ=              0.0000 ZZXY=             -1.4466
 N-N= 4.009897638020D+02 E-N=-1.696025362904D+03  KE= 3.812350003235D+02
 No NMR shielding tensors so no spin-rotation constants.
 Leave Link  601 at Fri Mar 20 17:29:09 2026, MaxMem=   536870912 cpu:         1.0
 (Enter C:\G09W\l701.exe)
 Compute integral first derivatives.
 ... and contract with generalized density number  0.
 Leave Link  701 at Fri Mar 20 17:29:09 2026, MaxMem=   536870912 cpu:         0.0
 (Enter C:\G09W\l702.exe)
 L702 exits ... SP integral derivatives will be done elsewhere.
 Leave Link  702 at Fri Mar 20 17:29:09 2026, MaxMem=   536870912 cpu:         0.0
 (Enter C:\G09W\l703.exe)
 Compute integral first derivatives, UseDBF=F ICtDFT=           0.
 Integral derivatives from FoFJK, PRISM(SPDF).
 Calling FoFJK, ICntrl=      2127 FMM=F ISym2X=0 I1Cent= 0 IOpClX= 0 NMat=1 NMatS=1 NMatT=0.
 FoFJK:  IHMeth= 1 ICntrl=    2127 DoSepK=F KAlg= 0 I1Cent=   0 FoldK=F
 IRaf=         0 NMat=   1 IRICut=       1 DoRegI=T DoRafI=F ISym2E= 0.
 FoFCou: FMM=F IPFlag=           0 FMFlag=      100000 FMFlg1=         800
         NFxFlg=           0 DoJE=F BraDBF=F KetDBF=F FulRan=T
         wScrn=  0.000000 ICntrl=    2127 IOpCl=  0 I1Cent=           0 NGrid=           0
         NMat0=    1 NMatS0=      1 NMatT0=    0 NMatD0=    1 NMtDS0=    0 NMtDT0=    0
 Symmetry not used in FoFCou.
 Leave Link  703 at Fri Mar 20 17:29:14 2026, MaxMem=   536870912 cpu:         5.0
 (Enter C:\G09W\l716.exe)
 Dipole        =-7.33343573D-01 9.36027291D-01 2.62494031D-05
 ***** Axes restored to original set *****
 -------------------------------------------------------------------
 Center     Atomic                   Forces (Hartrees/Bohr)
 Number     Number              X              Y              Z
 -------------------------------------------------------------------
      1        6          -0.009508170   -0.002731066    0.001998158
      2        6          -0.001851634   -0.017663302    0.002405006
      3        8           0.001921003    0.009556995   -0.001463415
      4        6          -0.001956897    0.000299917    0.000309802
      5        6           0.007832061    0.002580636   -0.001684692
      6        6          -0.001668958    0.001758684    0.000087612
      7        6           0.002838369    0.001694459   -0.000699696
      8        6          -0.004830777   -0.002421597    0.001136555
      9        6           0.007851898   -0.005048620   -0.000790692
     10        1           0.002056884    0.005225429    0.000513516
     11        1           0.001895300   -0.001313343   -0.000178877
     12        1           0.001552883    0.004888321   -0.002341105
     13        1          -0.001973966   -0.001520927    0.000526813
     14        1          -0.000777157   -0.000286351    0.000170680
     15        1          -0.000268766    0.000342706    0.000007080
     16        1          -0.000412360    0.000274179    0.000040471
     17        1          -0.002699710    0.004363881   -0.000037216
 -------------------------------------------------------------------
 Cartesian Forces:  Max     0.017663302 RMS     0.004042796
 Leave Link  716 at Fri Mar 20 17:29:14 2026, MaxMem=   536870912 cpu:         0.0
 (Enter C:\G09W\l103.exe)

 GradGradGradGradGradGradGradGradGradGradGradGradGradGradGradGradGradGrad
 Berny optimization.
 FormGI is forming the generalized inverse of G from B-inverse, IUseBI=4.
 Internal  Forces:  Max     0.009662391 RMS     0.002165693
 Search for a local minimum.
 Step number   1 out of a maximum of   88
 All quantities printed in internal units (Hartrees-Bohrs-Radians)
 RMS Force = .21657D-02 SwitMx=.10000D-02 MixMth= 1
 Mixed Optimization -- RFO/linear search
 Second derivative matrix not updated -- first step.
 ITU=  0
     Eigenvalues ---    0.00681   0.00748   0.00851   0.01697   0.02080
     Eigenvalues ---    0.02097   0.02104   0.02124   0.02139   0.02157
     Eigenvalues ---    0.02161   0.02171   0.07249   0.07545   0.16000
     Eigenvalues ---    0.16000   0.16000   0.16000   0.16000   0.16000
     Eigenvalues ---    0.16000   0.16000   0.22000   0.22000   0.23479
     Eigenvalues ---    0.25000   0.25000   0.25000   0.31716   0.33060
     Eigenvalues ---    0.34287   0.34464   0.34464   0.34959   0.35095
     Eigenvalues ---    0.35115   0.35132   0.35310   0.41749   0.41948
     Eigenvalues ---    0.45554   0.46102   0.46132   0.46585   0.91266
 RFO step:  Lambda=-1.45854657D-03 EMin= 6.81463993D-03
 Linear search not attempted -- first point.
 Iteration  1 RMS(Cart)=  0.01161901 RMS(Int)=  0.00014515
 Iteration  2 RMS(Cart)=  0.00015766 RMS(Int)=  0.00001126
 Iteration  3 RMS(Cart)=  0.00000002 RMS(Int)=  0.00001126
 ITry= 1 IFail=0 DXMaxC= 4.04D-02 DCOld= 1.00D+10 DXMaxT= 3.00D-01 DXLimC= 3.00D+00 Rises=F
 Variable       Old X    -DE/DX   Delta X   Delta X   Delta X     New X
                                 (Linear)    (Quad)   (Total)
    R1        2.84666   0.00725   0.00000   0.02277   0.02277   2.86942
    R2        2.06553   0.00187   0.00000   0.00542   0.00542   2.07095
    R3        2.06848  -0.00146   0.00000  -0.00424  -0.00424   2.06424
    R4        2.06554   0.00187   0.00000   0.00541   0.00541   2.07095
    R5        2.32355  -0.00966   0.00000  -0.01057  -0.01057   2.31298
    R6        2.82246   0.00424   0.00000   0.01276   0.01276   2.83522
    R7        2.64661   0.00266   0.00000   0.00566   0.00567   2.65228
    R8        2.64907   0.00068   0.00000   0.00129   0.00129   2.65037
    R9        2.64181  -0.00213   0.00000  -0.00460  -0.00460   2.63721
   R10        2.05175  -0.00021   0.00000  -0.00060  -0.00060   2.05115
   R11        2.63477   0.00139   0.00000   0.00318   0.00318   2.63795
   R12        2.05520  -0.00061   0.00000  -0.00172  -0.00172   2.05348
   R13        2.63305   0.00419   0.00000   0.00911   0.00911   2.64216
   R14        2.05488  -0.00024   0.00000  -0.00068  -0.00068   2.05420
   R15        2.63834  -0.00292   0.00000  -0.00633  -0.00633   2.63201
   R16        2.05461  -0.00046   0.00000  -0.00131  -0.00131   2.05331
   R17        2.05742  -0.00285   0.00000  -0.00811  -0.00811   2.04931
    A1        1.92502   0.00282   0.00000   0.01321   0.01321   1.93824
    A2        1.90510  -0.00246   0.00000  -0.00698  -0.00702   1.89808
    A3        1.92502   0.00282   0.00000   0.01321   0.01321   1.93823
    A4        1.88518   0.00126   0.00000   0.01607   0.01603   1.90121
    A5        1.93720  -0.00575   0.00000  -0.05098  -0.05094   1.88625
    A6        1.88518   0.00126   0.00000   0.01606   0.01603   1.90121
    A7        2.11256  -0.00222   0.00000  -0.00882  -0.00882   2.10374
    A8        2.07632  -0.00006   0.00000  -0.00024  -0.00024   2.07608
    A9        2.09430   0.00228   0.00000   0.00906   0.00906   2.10336
   A10        2.13390   0.00170   0.00000   0.00716   0.00716   2.14106
   A11        2.06703  -0.00058   0.00000  -0.00190  -0.00190   2.06513
   A12        2.08225  -0.00113   0.00000  -0.00526  -0.00526   2.07699
   A13        2.09618   0.00159   0.00000   0.00675   0.00676   2.10293
   A14        2.12386  -0.00340   0.00000  -0.01952  -0.01952   2.10434
   A15        2.06314   0.00181   0.00000   0.01277   0.01277   2.07591
   A16        2.09801  -0.00085   0.00000  -0.00348  -0.00348   2.09452
   A17        2.09417  -0.00018   0.00000  -0.00203  -0.00203   2.09215
   A18        2.09101   0.00103   0.00000   0.00551   0.00551   2.09651
   A19        2.09441  -0.00052   0.00000  -0.00172  -0.00173   2.09269
   A20        2.09525  -0.00012   0.00000  -0.00149  -0.00148   2.09377
   A21        2.09352   0.00064   0.00000   0.00321   0.00321   2.09673
   A22        2.09377   0.00033   0.00000   0.00165   0.00165   2.09542
   A23        2.09689   0.00002   0.00000   0.00034   0.00034   2.09723
   A24        2.09252  -0.00035   0.00000  -0.00199  -0.00199   2.09054
   A25        2.10176   0.00059   0.00000   0.00206   0.00206   2.10382
   A26        2.09913  -0.00468   0.00000  -0.02822  -0.02822   2.07091
   A27        2.08230   0.00410   0.00000   0.02616   0.02616   2.10846
    D1       -2.06861  -0.00172   0.00000  -0.02325  -0.02328  -2.09189
    D2        1.07298  -0.00172   0.00000  -0.02324  -0.02327   1.04971
    D3       -0.00003   0.00000   0.00000   0.00001   0.00001  -0.00003
    D4        3.14156   0.00000   0.00000   0.00001   0.00001   3.14157
    D5        2.06855   0.00172   0.00000   0.02325   0.02328   2.09183
    D6       -1.07305   0.00172   0.00000   0.02326   0.02329  -1.04976
    D7        0.00004   0.00000   0.00000  -0.00002  -0.00002   0.00002
    D8       -3.14155   0.00000   0.00000  -0.00002  -0.00002  -3.14158
    D9       -3.14156   0.00000   0.00000  -0.00001  -0.00001  -3.14157
   D10        0.00004   0.00000   0.00000  -0.00002  -0.00002   0.00002
   D11       -3.14159   0.00000   0.00000  -0.00001  -0.00001   3.14159
   D12        0.00001   0.00000   0.00000  -0.00001  -0.00001   0.00000
   D13        0.00000   0.00000   0.00000  -0.00001  -0.00001   0.00000
   D14       -3.14159   0.00000   0.00000   0.00000   0.00000  -3.14159
   D15        3.14159   0.00000   0.00000   0.00001   0.00001  -3.14159
   D16        0.00000   0.00000   0.00000   0.00000   0.00000   0.00000
   D17        0.00000   0.00000   0.00000   0.00000   0.00000   0.00000
   D18       -3.14159   0.00000   0.00000   0.00000   0.00000   3.14159
   D19        0.00000   0.00000   0.00000   0.00000   0.00000   0.00000
   D20       -3.14159   0.00000   0.00000   0.00000   0.00000  -3.14159
   D21        3.14159   0.00000   0.00000   0.00000   0.00000   3.14159
   D22        0.00000   0.00000   0.00000   0.00000   0.00000   0.00000
   D23        0.00000   0.00000   0.00000   0.00000   0.00000   0.00000
   D24        3.14159   0.00000   0.00000   0.00000   0.00000   3.14159
   D25        3.14159   0.00000   0.00000   0.00000   0.00000   3.14159
   D26        0.00000   0.00000   0.00000   0.00000   0.00000   0.00000
   D27        0.00000   0.00000   0.00000   0.00000   0.00000   0.00000
   D28       -3.14159   0.00000   0.00000   0.00000   0.00000  -3.14159
   D29       -3.14159   0.00000   0.00000   0.00000   0.00000   3.14159
   D30        0.00000   0.00000   0.00000   0.00000   0.00000   0.00000
   D31        0.00000   0.00000   0.00000   0.00000   0.00000   0.00000
   D32        3.14159   0.00000   0.00000   0.00001   0.00001  -3.14159
   D33       -3.14159   0.00000   0.00000   0.00000   0.00000  -3.14159
   D34        0.00000   0.00000   0.00000   0.00000   0.00000   0.00000
         Item               Value     Threshold  Converged?
 Maximum Force            0.009662     0.000450     NO 
 RMS     Force            0.002166     0.000300     NO 
 Maximum Displacement     0.040382     0.001800     NO 
 RMS     Displacement     0.011662     0.001200     NO 
 Predicted change in Energy=-7.364162D-04
 Lowest energy point so far.  Saving SCF results.
 GradGradGradGradGradGradGradGradGradGradGradGradGradGradGradGradGradGrad

 Leave Link  103 at Fri Mar 20 17:29:15 2026, MaxMem=   536870912 cpu:         0.0
 (Enter C:\G09W\l202.exe)
                          Input orientation:                          
 ---------------------------------------------------------------------
 Center     Atomic      Atomic             Coordinates (Angstroms)
 Number     Number       Type             X           Y           Z
 ---------------------------------------------------------------------
      1          6           0       -2.596204    0.770710    0.506912
      2          6           0       -1.708280   -0.460996    0.495282
      3          8           0       -2.180278   -1.569902    0.708972
      4          6           0       -0.242960   -0.297353    0.217684
      5          6           0        0.345848    0.951773   -0.033069
      6          6           0        1.714648    1.051348   -0.286110
      7          6           0        2.508996   -0.096538   -0.291128
      8          6           0        1.931123   -1.345158   -0.042363
      9          6           0        0.564948   -1.443769    0.210104
     10          1           0       -2.575817    1.279891   -0.463302
     11          1           0       -3.621448    0.462475    0.723911
     12          1           0       -2.269873    1.484051    1.272190
     13          1           0       -0.255448    1.855421   -0.033356
     14          1           0        2.160049    2.023578   -0.479005
     15          1           0        3.575122   -0.018159   -0.488314
     16          1           0        2.545444   -2.241384   -0.045244
     17          1           0        0.104130   -2.405988    0.404543
 ---------------------------------------------------------------------
                    Distance matrix (angstroms):
                    1          2          3          4          5
     1  C    0.000000
     2  C    1.518434   0.000000
     3  O    2.385851   1.223977   0.000000
     4  C    2.600416   1.500333   2.369376   0.000000
     5  C    2.996669   2.548433   3.645652   1.403527   0.000000
     6  C    4.392162   3.822852   4.799124   2.430028   1.395550
     7  C    5.239470   4.305425   5.016004   2.805794   2.417594
     8  C    5.027453   3.783656   4.185527   2.427377   2.790892
     9  C    3.871033   2.492937   2.793036   1.402513   2.417800
    10  H    1.095900   2.168454   3.106766   2.897182   2.971344
    11  H    1.092347   2.136652   2.491535   3.499683   4.068398
    12  H    1.095900   2.168451   3.106746   2.897198   2.971366
    13  H    2.635835   2.784953   3.998607   2.167398   1.085420
    14  H    5.016338   4.699607   5.758717   3.412704   2.153822
    15  H    6.300639   5.392393   6.079970   3.892832   3.402386
    16  H    5.984490   4.642856   4.832409   3.409338   3.877450
    17  H    4.170574   2.660086   2.451579   2.145164   3.394774
                    6          7          8          9         10
     6  C    0.000000
     7  C    1.395943   0.000000
     8  C    2.418578   1.398168   0.000000
     9  C    2.791711   2.417765   1.392801   0.000000
    10  H    4.300200   5.270628   5.232645   4.211438   0.000000
    11  H    5.462676   6.239001   5.889461   4.628572   1.780726
    12  H    4.300225   5.270656   5.232670   4.211457   1.774039
    13  H    2.142825   3.393927   3.876194   3.408369   2.429032
    14  H    1.086655   2.156838   3.404621   3.878364   4.793927
    15  H    2.155481   1.087038   2.159290   3.403131   6.286463
    16  H    3.404456   2.159201   1.086563   2.150292   6.229082
    17  H    3.876074   3.406009   2.159395   1.084447   4.639070
                   11         12         13         14         15
    11  H    0.000000
    12  H    1.780725   0.000000
    13  H    3.720713   2.429048   0.000000
    14  H    6.108170   4.793952   2.462012   0.000000
    15  H    7.313762   6.286492   4.288422   2.484192   0.000000
    16  H    6.777389   6.229107   4.962756   4.304250   2.489835
    17  H    4.712749   4.639084   4.298914   4.962712   4.306589
                   16         17
    16  H    0.000000
    17  H    2.487854   0.000000
 Stoichiometry    C8H8O
 Framework group  C1[X(C8H8O)]
 Deg. of freedom    45
 Full point group                 C1      NOp   1
 RotChk:  IX=0 Diff= 1.61D-03
 Largest Abelian subgroup         C1      NOp   1
 Largest concise Abelian subgroup C1      NOp   1
                         Standard orientation:                         
 ---------------------------------------------------------------------
 Center     Atomic      Atomic             Coordinates (Angstroms)
 Number     Number       Type             X           Y           Z
 ---------------------------------------------------------------------
      1          6           0        2.560367    1.049081    0.000015
      2          6           0        1.699404   -0.201674    0.000000
      3          8           0        2.215187   -1.311668   -0.000019
      4          6           0        0.206208   -0.055502    0.000001
      5          6           0       -0.432791    1.194125   -0.000007
      6          6           0       -1.825875    1.277041   -0.000008
      7          6           0       -2.594592    0.111823    0.000000
      8          6           0       -1.966712   -1.137433    0.000009
      9          6           0       -0.576325   -1.219411    0.000008
     10          1           0        2.364191    1.662041    0.887028
     11          1           0        3.611495    0.751841    0.000035
     12          1           0        2.364225    1.662034   -0.887010
     13          1           0        0.147959    2.111113   -0.000014
     14          1           0       -2.310143    2.249823   -0.000016
     15          1           0       -3.679660    0.177232    0.000001
     16          1           0       -2.560931   -2.047115    0.000015
     17          1           0       -0.076732   -2.181925    0.000013
 ---------------------------------------------------------------------
 Rotational constants (GHZ):      3.6813458      1.2096235      0.9156946
 Leave Link  202 at Fri Mar 20 17:29:15 2026, MaxMem=   536870912 cpu:         0.0
 (Enter C:\G09W\l301.exe)
 Standard basis: 6-31G(d) (6D, 7F)
 Ernie: Thresh=  0.10000D-02 Tol=  0.10000D-05 Strict=F.
 There are   151 symmetry adapted cartesian basis functions of A   symmetry.
 There are   151 symmetry adapted basis functions of A   symmetry.
   151 basis functions,   284 primitive gaussians,   151 cartesian basis functions
    32 alpha electrons       32 beta electrons
       nuclear repulsion energy       400.3949993347 Hartrees.
 IExCor=  402 DFT=T Ex+Corr=B3LYP ExCW=0 ScaHFX=  0.200000
 ScaDFX=  0.800000  0.720000  1.000000  0.810000 ScalE2=  1.000000  1.000000
 IRadAn=      0 IRanWt=     -1 IRanGd=            0 ICorTp=0 IEmpDi=  4
 NAtoms=   17 NActive=   17 NUniq=   17 SFac= 1.00D+00 NAtFMM=   60 NAOKFM=F Big=F
 Integral buffers will be    131072 words long.
 Raffenetti 2 integral format.
 Two-electron integral symmetry is turned on.
 Leave Link  301 at Fri Mar 20 17:29:15 2026, MaxMem=   536870912 cpu:         0.0
 (Enter C:\G09W\l302.exe)
 NPDir=0 NMtPBC=     1 NCelOv=     1 NCel=       1 NClECP=     1 NCelD=      1
         NCelK=      1 NCelE2=     1 NClLst=     1 CellRange=     0.0.
 One-electron integrals computed using PRISM.
 NBasis=   151 RedAO= T EigKep=  4.70D-04  NBF=   151
 NBsUse=   151 1.00D-06 EigRej= -1.00D+00 NBFU=   151
 Precomputing XC quadrature grid using
 IXCGrd= 4 IRadAn=           0 IRanWt=          -1 IRanGd=           0 AccXCQ= 0.00D+00.
 Generated NRdTot=       0 NPtTot=           0 NUsed=           0 NTot=          32
 NSgBfM=   151   151   151   151   151 MxSgAt=    17 MxSgA2=    17.
 Leave Link  302 at Fri Mar 20 17:29:15 2026, MaxMem=   536870912 cpu:         0.0
 (Enter C:\G09W\l303.exe)
 DipDrv:  MaxL=1.
 Leave Link  303 at Fri Mar 20 17:29:16 2026, MaxMem=   536870912 cpu:         1.0
 (Enter C:\G09W\l401.exe)
 Initial guess from the checkpoint file:  "acetophenone_rdkit.chk"
 B after Tr=     0.000000    0.000000    0.000000
         Rot=    1.000000    0.000000    0.000000   -0.000333 Ang=   0.04 deg.
 Guess basis will be translated and rotated to current coordinates.
 JPrj=2 DoOrth=T DoCkMO=T.
 Generating alternative initial guess.
 ExpMin= 1.61D-01 ExpMax= 5.48D+03 ExpMxC= 8.25D+02 IAcc=1 IRadAn=         1 AccDes= 0.00D+00
 Harris functional with IExCor=  402 and IRadAn=       1 diagonalized for initial guess.
 HarFok:  IExCor=  402 AccDes= 0.00D+00 IRadAn=         1 IDoV= 1 UseB2=F ITyADJ=14
 ICtDFT=  3500011 ScaDFX=  1.000000  1.000000  1.000000  1.000000
 FoFCou: FMM=F IPFlag=           0 FMFlag=      100000 FMFlg1=           0
         NFxFlg=           0 DoJE=T BraDBF=F KetDBF=T FulRan=T
         wScrn=  0.000000 ICntrl=     500 IOpCl=  0 I1Cent=   200000004 NGrid=           0
         NMat0=    1 NMatS0=      1 NMatT0=    0 NMatD0=    1 NMtDS0=    0 NMtDT0=    0
 Petite list used in FoFCou.
 Harris En= -384.930771920572    
 Leave Link  401 at Fri Mar 20 17:29:16 2026, MaxMem=   536870912 cpu:         0.0
 (Enter C:\G09W\l502.exe)
 Closed shell SCF:
 Using DIIS extrapolation, IDIIS=  1040.
 Integral symmetry usage will be decided dynamically.
 Keep R1 ints in memory in canonical form, NReq=67699856.
 IVT=       89002 IEndB=       89002 NGot=   536870912 MDV=   470926885
 LenX=   470926885 LenY=   470903643
 Requested convergence on RMS density matrix=1.00D-08 within 128 cycles.
 Requested convergence on MAX density matrix=1.00D-06.
 Requested convergence on             energy=1.00D-06.
 No special actions if energy rises.
 FoFCou: FMM=F IPFlag=           0 FMFlag=           0 FMFlg1=           0
         NFxFlg=           0 DoJE=F BraDBF=F KetDBF=F FulRan=T
         wScrn=  0.000000 ICntrl=     600 IOpCl=  0 I1Cent=           0 NGrid=           0
         NMat0=    1 NMatS0=  11476 NMatT0=    0 NMatD0=    1 NMtDS0=    0 NMtDT0=    0
 Symmetry not used in FoFCou.
 Integral accuracy reduced to 1.0D-05 until final iterations.

 Cycle   1  Pass 0  IDiag  1:
 E= -384.895687132550    
 DIIS: error= 9.46D-04 at cycle   1 NSaved=   1.
 NSaved= 1 IEnMin= 1 EnMin= -384.895687132550     IErMin= 1 ErrMin= 9.46D-04
 ErrMax= 9.46D-04  0.00D+00 EMaxC= 1.00D-01 BMatC= 1.53D-04 BMatP= 1.53D-04
 IDIUse=3 WtCom= 9.91D-01 WtEn= 9.46D-03
 Coeff-Com:  0.100D+01
 Coeff-En:   0.100D+01
 Coeff:      0.100D+01
 Gap=     1.923 Goal=   None    Shift=    0.000
 RMSDP=2.18D-04 MaxDP=2.82D-03              OVMax= 4.34D-03

 Cycle   2  Pass 0  IDiag  1:
 E= -384.895866756349     Delta-E=       -0.000179623799 Rises=F Damp=F
 DIIS: error= 7.86D-04 at cycle   2 NSaved=   2.
 NSaved= 2 IEnMin= 2 EnMin= -384.895866756349     IErMin= 2 ErrMin= 7.86D-04
 ErrMax= 7.86D-04  0.00D+00 EMaxC= 1.00D-01 BMatC= 6.09D-05 BMatP= 1.53D-04
 IDIUse=3 WtCom= 9.92D-01 WtEn= 7.86D-03
 Coeff-Com:  0.327D+00 0.673D+00
 Coeff-En:   0.000D+00 0.100D+01
 Coeff:      0.325D+00 0.675D+00
 Gap=     0.192 Goal=   None    Shift=    0.000
 RMSDP=9.43D-05 MaxDP=3.61D-03 DE=-1.80D-04 OVMax= 4.61D-03

 Cycle   3  Pass 0  IDiag  1:
 E= -384.895852155019     Delta-E=        0.000014601330 Rises=F Damp=F
 DIIS: error= 1.13D-03 at cycle   3 NSaved=   3.
 NSaved= 3 IEnMin= 2 EnMin= -384.895866756349     IErMin= 2 ErrMin= 7.86D-04
 ErrMax= 1.13D-03  0.00D+00 EMaxC= 1.00D-01 BMatC= 7.83D-05 BMatP= 6.09D-05
 IDIUse=3 WtCom= 2.29D-01 WtEn= 7.71D-01
 Coeff-Com: -0.280D-02 0.533D+00 0.470D+00
 Coeff-En:   0.000D+00 0.550D+00 0.450D+00
 Coeff:     -0.642D-03 0.546D+00 0.455D+00
 Gap=     0.193 Goal=   None    Shift=    0.000
 RMSDP=5.90D-05 MaxDP=2.17D-03 DE= 1.46D-05 OVMax= 2.93D-03

 Cycle   4  Pass 0  IDiag  1:
 E= -384.895913661892     Delta-E=       -0.000061506873 Rises=F Damp=F
 DIIS: error= 7.38D-05 at cycle   4 NSaved=   4.
 NSaved= 4 IEnMin= 4 EnMin= -384.895913661892     IErMin= 4 ErrMin= 7.38D-05
 ErrMax= 7.38D-05  0.00D+00 EMaxC= 1.00D-01 BMatC= 1.16D-06 BMatP= 6.09D-05
 IDIUse=1 WtCom= 1.00D+00 WtEn= 0.00D+00
 Coeff-Com: -0.133D-01 0.254D+00 0.232D+00 0.526D+00
 Coeff:     -0.133D-01 0.254D+00 0.232D+00 0.526D+00
 Gap=     0.193 Goal=   None    Shift=    0.000
 RMSDP=8.98D-06 MaxDP=2.09D-04 DE=-6.15D-05 OVMax= 3.32D-04

 Initial convergence to 1.0D-05 achieved.  Increase integral accuracy.
 Cycle   5  Pass 1  IDiag  1:
 E= -384.895948456233     Delta-E=       -0.000034794342 Rises=F Damp=F
 DIIS: error= 2.72D-05 at cycle   1 NSaved=   1.
 NSaved= 1 IEnMin= 1 EnMin= -384.895948456233     IErMin= 1 ErrMin= 2.72D-05
 ErrMax= 2.72D-05  0.00D+00 EMaxC= 1.00D-01 BMatC= 1.47D-07 BMatP= 1.47D-07
 IDIUse=1 WtCom= 1.00D+00 WtEn= 0.00D+00
 Coeff-Com:  0.100D+01
 Coeff:      0.100D+01
 Gap=     0.193 Goal=   None    Shift=    0.000
 RMSDP=8.98D-06 MaxDP=2.09D-04 DE=-3.48D-05 OVMax= 2.94D-04

 Cycle   6  Pass 1  IDiag  1:
 E= -384.895948320832     Delta-E=        0.000000135402 Rises=F Damp=F
 DIIS: error= 5.20D-05 at cycle   2 NSaved=   2.
 NSaved= 2 IEnMin= 1 EnMin= -384.895948456233     IErMin= 1 ErrMin= 2.72D-05
 ErrMax= 5.20D-05  0.00D+00 EMaxC= 1.00D-01 BMatC= 2.88D-07 BMatP= 1.47D-07
 IDIUse=1 WtCom= 1.00D+00 WtEn= 0.00D+00
 Coeff-Com:  0.591D+00 0.409D+00
 Coeff:      0.591D+00 0.409D+00
 Gap=     0.193 Goal=   None    Shift=    0.000
 RMSDP=4.00D-06 MaxDP=1.05D-04 DE= 1.35D-07 OVMax= 2.16D-04

 Cycle   7  Pass 1  IDiag  1:
 E= -384.895948614859     Delta-E=       -0.000000294027 Rises=F Damp=F
 DIIS: error= 1.02D-05 at cycle   3 NSaved=   3.
 NSaved= 3 IEnMin= 3 EnMin= -384.895948614859     IErMin= 3 ErrMin= 1.02D-05
 ErrMax= 1.02D-05  0.00D+00 EMaxC= 1.00D-01 BMatC= 8.26D-09 BMatP= 1.47D-07
 IDIUse=1 WtCom= 1.00D+00 WtEn= 0.00D+00
 Coeff-Com:  0.130D+00 0.167D+00 0.703D+00
 Coeff:      0.130D+00 0.167D+00 0.703D+00
 Gap=     0.193 Goal=   None    Shift=    0.000
 RMSDP=1.07D-06 MaxDP=2.15D-05 DE=-2.94D-07 OVMax= 6.40D-05

 Cycle   8  Pass 1  IDiag  1:
 E= -384.895948620005     Delta-E=       -0.000000005146 Rises=F Damp=F
 DIIS: error= 5.54D-06 at cycle   4 NSaved=   4.
 NSaved= 4 IEnMin= 4 EnMin= -384.895948620005     IErMin= 4 ErrMin= 5.54D-06
 ErrMax= 5.54D-06  0.00D+00 EMaxC= 1.00D-01 BMatC= 3.73D-09 BMatP= 8.26D-09
 IDIUse=1 WtCom= 1.00D+00 WtEn= 0.00D+00
 Coeff-Com: -0.411D-02 0.475D-01 0.458D+00 0.499D+00
 Coeff:     -0.411D-02 0.475D-01 0.458D+00 0.499D+00
 Gap=     0.193 Goal=   None    Shift=    0.000
 RMSDP=4.71D-07 MaxDP=1.13D-05 DE=-5.15D-09 OVMax= 2.63D-05

 Cycle   9  Pass 1  IDiag  1:
 E= -384.895948623728     Delta-E=       -0.000000003723 Rises=F Damp=F
 DIIS: error= 7.75D-07 at cycle   5 NSaved=   5.
 NSaved= 5 IEnMin= 5 EnMin= -384.895948623728     IErMin= 5 ErrMin= 7.75D-07
 ErrMax= 7.75D-07  0.00D+00 EMaxC= 1.00D-01 BMatC= 5.95D-11 BMatP= 3.73D-09
 IDIUse=1 WtCom= 1.00D+00 WtEn= 0.00D+00
 Coeff-Com: -0.635D-02 0.137D-01 0.163D+00 0.216D+00 0.614D+00
 Coeff:     -0.635D-02 0.137D-01 0.163D+00 0.216D+00 0.614D+00
 Gap=     0.193 Goal=   None    Shift=    0.000
 RMSDP=1.00D-07 MaxDP=2.05D-06 DE=-3.72D-09 OVMax= 3.47D-06

 Cycle  10  Pass 1  IDiag  1:
 E= -384.895948623766     Delta-E=       -0.000000000037 Rises=F Damp=F
 DIIS: error= 4.02D-07 at cycle   6 NSaved=   6.
 NSaved= 6 IEnMin= 6 EnMin= -384.895948623766     IErMin= 6 ErrMin= 4.02D-07
 ErrMax= 4.02D-07  0.00D+00 EMaxC= 1.00D-01 BMatC= 2.11D-11 BMatP= 5.95D-11
 IDIUse=1 WtCom= 1.00D+00 WtEn= 0.00D+00
 Coeff-Com: -0.423D-02 0.587D-02 0.778D-01 0.109D+00 0.400D+00 0.411D+00
 Coeff:     -0.423D-02 0.587D-02 0.778D-01 0.109D+00 0.400D+00 0.411D+00
 Gap=     0.193 Goal=   None    Shift=    0.000
 RMSDP=3.31D-08 MaxDP=9.56D-07 DE=-3.74D-11 OVMax= 1.51D-06

 Cycle  11  Pass 1  IDiag  1:
 E= -384.895948623790     Delta-E=       -0.000000000025 Rises=F Damp=F
 DIIS: error= 1.21D-07 at cycle   7 NSaved=   7.
 NSaved= 7 IEnMin= 7 EnMin= -384.895948623790     IErMin= 7 ErrMin= 1.21D-07
 ErrMax= 1.21D-07  0.00D+00 EMaxC= 1.00D-01 BMatC= 1.31D-12 BMatP= 2.11D-11
 IDIUse=1 WtCom= 1.00D+00 WtEn= 0.00D+00
 Coeff-Com: -0.175D-02 0.193D-02 0.276D-01 0.408D-01 0.173D+00 0.250D+00
 Coeff-Com:  0.509D+00
 Coeff:     -0.175D-02 0.193D-02 0.276D-01 0.408D-01 0.173D+00 0.250D+00
 Coeff:      0.509D+00
 Gap=     0.193 Goal=   None    Shift=    0.000
 RMSDP=8.49D-09 MaxDP=2.34D-07 DE=-2.46D-11 OVMax= 3.19D-07

 SCF Done:  E(RB3LYP) =  -384.895948624     A.U. after   11 cycles
            NFock= 11  Conv=0.85D-08     -V/T= 2.0097
 KE= 3.812112732700D+02 PE=-1.694797170362D+03 EE= 5.282949491338D+02
 Leave Link  502 at Fri Mar 20 17:29:33 2026, MaxMem=   536870912 cpu:        16.0
 (Enter C:\G09W\l701.exe)
 Compute integral first derivatives.
 ... and contract with generalized density number  0.
 Leave Link  701 at Fri Mar 20 17:29:33 2026, MaxMem=   536870912 cpu:         0.0
 (Enter C:\G09W\l702.exe)
 L702 exits ... SP integral derivatives will be done elsewhere.
 Leave Link  702 at Fri Mar 20 17:29:34 2026, MaxMem=   536870912 cpu:         0.0
 (Enter C:\G09W\l703.exe)
 Compute integral first derivatives, UseDBF=F ICtDFT=           0.
 Integral derivatives from FoFJK, PRISM(SPDF).
 Calling FoFJK, ICntrl=      2127 FMM=F ISym2X=0 I1Cent= 0 IOpClX= 0 NMat=1 NMatS=1 NMatT=0.
 FoFJK:  IHMeth= 1 ICntrl=    2127 DoSepK=F KAlg= 0 I1Cent=   0 FoldK=F
 IRaf=         0 NMat=   1 IRICut=       1 DoRegI=T DoRafI=F ISym2E= 0.
 FoFCou: FMM=F IPFlag=           0 FMFlag=      100000 FMFlg1=         800
         NFxFlg=           0 DoJE=F BraDBF=F KetDBF=F FulRan=T
         wScrn=  0.000000 ICntrl=    2127 IOpCl=  0 I1Cent=           0 NGrid=           0
         NMat0=    1 NMatS0=      1 NMatT0=    0 NMatD0=    1 NMtDS0=    0 NMtDT0=    0
 Symmetry not used in FoFCou.
 Leave Link  703 at Fri Mar 20 17:29:39 2026, MaxMem=   536870912 cpu:         5.0
 (Enter C:\G09W\l716.exe)
 Dipole        =-7.33851236D-01 9.26451185D-01 1.25918954D-05
 ***** Axes restored to original set *****
 -------------------------------------------------------------------
 Center     Atomic                   Forces (Hartrees/Bohr)
 Number     Number              X              Y              Z
 -------------------------------------------------------------------
      1        6          -0.002235719   -0.000745770    0.000481523
      2        6          -0.000219634   -0.004125545    0.000524841
      3        8           0.001020586    0.003046127   -0.000538719
      4        6          -0.000759682    0.001299966   -0.000019190
      5        6           0.001122742    0.000384334   -0.000243092
      6        6          -0.000583736   -0.000285945    0.000136517
      7        6           0.000034462   -0.000090812    0.000004563
      8        6          -0.001108809   -0.000009126    0.000196613
      9        6           0.002583442   -0.000810127   -0.000360081
     10        1           0.000650708    0.000965602    0.000128351
     11        1           0.000671092   -0.000372879   -0.000074379
     12        1           0.000530491    0.000885345   -0.000554220
     13        1          -0.000660823   -0.000125656    0.000131227
     14        1          -0.000096614   -0.000024864    0.000019940
     15        1          -0.000115119   -0.000114682    0.000033820
     16        1           0.000218808    0.000078217   -0.000047800
     17        1          -0.001052196    0.000045816    0.000180086
 -------------------------------------------------------------------
 Cartesian Forces:  Max     0.004125545 RMS     0.001006838
 Leave Link  716 at Fri Mar 20 17:29:39 2026, MaxMem=   536870912 cpu:         0.0
 (Enter C:\G09W\l103.exe)

 GradGradGradGradGradGradGradGradGradGradGradGradGradGradGradGradGradGrad
 Berny optimization.
 Using GEDIIS/GDIIS optimizer.
 FormGI is forming the generalized inverse of G from B-inverse, IUseBI=4.
 Internal  Forces:  Max     0.003245103 RMS     0.000521996
 Search for a local minimum.
 Step number   2 out of a maximum of   88
 All quantities printed in internal units (Hartrees-Bohrs-Radians)
 RMS Force = .52200D-03 SwitMx=.10000D-02 MixMth= 2
 Mixed Optimization -- En-DIIS/RFO-DIIS
 Update second derivatives using D2CorX and points    1    2
 DE= -8.58D-04 DEPred=-7.36D-04 R= 1.16D+00
 TightC=F SS=  1.41D+00  RLast= 9.59D-02 DXNew= 5.0454D-01 2.8761D-01
 Trust test= 1.16D+00 RLast= 9.59D-02 DXMaxT set to 3.00D-01
 ITU=  1  0
 Use linear search instead of GDIIS.
     Eigenvalues ---    0.00681   0.00749   0.00851   0.01694   0.02080
     Eigenvalues ---    0.02098   0.02105   0.02124   0.02139   0.02157
     Eigenvalues ---    0.02161   0.02171   0.06673   0.07443   0.14233
     Eigenvalues ---    0.16000   0.16000   0.16000   0.16000   0.16000
     Eigenvalues ---    0.16000   0.16172   0.21995   0.22081   0.23777
     Eigenvalues ---    0.24856   0.25000   0.25044   0.31464   0.33503
     Eigenvalues ---    0.34201   0.34414   0.34464   0.35092   0.35111
     Eigenvalues ---    0.35126   0.35256   0.35549   0.41771   0.41964
     Eigenvalues ---    0.45454   0.45776   0.46339   0.46956   0.88440
 RFO step:  Lambda=-3.81860428D-05 EMin= 6.81463992D-03
 Quartic linear search produced a step of  0.21324.
 Iteration  1 RMS(Cart)=  0.00334483 RMS(Int)=  0.00001317
 Iteration  2 RMS(Cart)=  0.00001343 RMS(Int)=  0.00000240
 Iteration  3 RMS(Cart)=  0.00000000 RMS(Int)=  0.00000240
 ITry= 1 IFail=0 DXMaxC= 1.36D-02 DCOld= 1.00D+10 DXMaxT= 3.00D-01 DXLimC= 3.00D+00 Rises=F
 Variable       Old X    -DE/DX   Delta X   Delta X   Delta X     New X
                                 (Linear)    (Quad)   (Total)
    R1        2.86942   0.00081   0.00485  -0.00120   0.00365   2.87308
    R2        2.07095   0.00034   0.00116   0.00019   0.00135   2.07230
    R3        2.06424  -0.00054  -0.00090  -0.00110  -0.00201   2.06223
    R4        2.07095   0.00034   0.00115   0.00019   0.00135   2.07230
    R5        2.31298  -0.00325  -0.00225  -0.00233  -0.00458   2.30840
    R6        2.83522  -0.00037   0.00272  -0.00376  -0.00104   2.83418
    R7        2.65228  -0.00034   0.00121  -0.00194  -0.00073   2.65155
    R8        2.65037   0.00079   0.00028   0.00189   0.00217   2.65253
    R9        2.63721  -0.00065  -0.00098  -0.00086  -0.00184   2.63537
   R10        2.05115   0.00026  -0.00013   0.00102   0.00089   2.05204
   R11        2.63795   0.00027   0.00068   0.00007   0.00074   2.63869
   R12        2.05348  -0.00006  -0.00037   0.00010  -0.00026   2.05322
   R13        2.64216  -0.00002   0.00194  -0.00179   0.00015   2.64231
   R14        2.05420  -0.00013  -0.00015  -0.00031  -0.00046   2.05375
   R15        2.63201  -0.00106  -0.00135  -0.00159  -0.00294   2.62908
   R16        2.05331   0.00006  -0.00028   0.00045   0.00017   2.05347
   R17        2.04931   0.00044  -0.00173   0.00304   0.00131   2.05062
    A1        1.93824   0.00033   0.00282  -0.00134   0.00147   1.93971
    A2        1.89808  -0.00062  -0.00150  -0.00089  -0.00239   1.89568
    A3        1.93823   0.00033   0.00282  -0.00134   0.00147   1.93971
    A4        1.90121   0.00051   0.00342   0.00331   0.00671   1.90793
    A5        1.88625  -0.00102  -0.01086  -0.00284  -0.01370   1.87255
    A6        1.90121   0.00051   0.00342   0.00331   0.00671   1.90792
    A7        2.10374  -0.00022  -0.00188   0.00060  -0.00129   2.10245
    A8        2.07608  -0.00014  -0.00005  -0.00064  -0.00069   2.07539
    A9        2.10336   0.00036   0.00193   0.00005   0.00198   2.10534
   A10        2.14106   0.00019   0.00153  -0.00052   0.00101   2.14208
   A11        2.06513  -0.00049  -0.00041  -0.00210  -0.00250   2.06263
   A12        2.07699   0.00031  -0.00112   0.00261   0.00149   2.07848
   A13        2.10293  -0.00034   0.00144  -0.00307  -0.00163   2.10131
   A14        2.10434  -0.00048  -0.00416  -0.00036  -0.00452   2.09982
   A15        2.07591   0.00082   0.00272   0.00342   0.00614   2.08205
   A16        2.09452   0.00008  -0.00074   0.00109   0.00035   2.09487
   A17        2.09215  -0.00013  -0.00043  -0.00047  -0.00090   2.09124
   A18        2.09651   0.00004   0.00117  -0.00062   0.00056   2.09707
   A19        2.09269   0.00022  -0.00037   0.00147   0.00110   2.09379
   A20        2.09377  -0.00001  -0.00032   0.00049   0.00018   2.09394
   A21        2.09673  -0.00021   0.00068  -0.00196  -0.00128   2.09545
   A22        2.09542  -0.00020   0.00035  -0.00141  -0.00106   2.09436
   A23        2.09723  -0.00014   0.00007  -0.00134  -0.00127   2.09596
   A24        2.09054   0.00034  -0.00042   0.00276   0.00233   2.09287
   A25        2.10382  -0.00007   0.00044  -0.00069  -0.00025   2.10357
   A26        2.07091  -0.00096  -0.00602  -0.00204  -0.00806   2.06284
   A27        2.10846   0.00103   0.00558   0.00274   0.00832   2.11678
    D1       -2.09189  -0.00043  -0.00496  -0.00267  -0.00764  -2.09953
    D2        1.04971  -0.00043  -0.00496  -0.00270  -0.00767   1.04203
    D3       -0.00003   0.00000   0.00000   0.00002   0.00002  -0.00001
    D4        3.14157   0.00000   0.00000  -0.00001  -0.00001   3.14156
    D5        2.09183   0.00043   0.00496   0.00271   0.00768   2.09951
    D6       -1.04976   0.00043   0.00497   0.00268   0.00765  -1.04210
    D7        0.00002   0.00000   0.00000   0.00001   0.00000   0.00002
    D8       -3.14158   0.00000  -0.00001   0.00001   0.00000  -3.14157
    D9       -3.14157   0.00000   0.00000  -0.00002  -0.00003   3.14159
   D10        0.00002   0.00000   0.00000  -0.00002  -0.00003   0.00000
   D11        3.14159   0.00000   0.00000   0.00000   0.00000   3.14159
[...]
 ! D30   D(15,7,8,16)            0.0            -DE/DX =    0.0                 !
 ! D31   D(7,8,9,4)              0.0001         -DE/DX =    0.0                 !
 ! D32   D(7,8,9,17)           180.0            -DE/DX =    0.0                 !
 ! D33   D(16,8,9,4)          -179.9999         -DE/DX =    0.0                 !
 ! D34   D(16,8,9,17)            0.0            -DE/DX =    0.0                 !
 --------------------------------------------------------------------------------
 GradGradGradGradGradGradGradGradGradGradGradGradGradGradGradGradGradGrad

 Leave Link  103 at Fri Mar 20 17:33:09 2026, MaxMem=   536870912 cpu:         0.0
 (Enter C:\G09W\l9999.exe)
 1|1|UNPC-DESKTOP-GS7R1K3|Freq|RB3LYP|6-31G(d)|C8H8O1|1172|20-Mar-2026|
 0||#P Geom=AllCheck Guess=TCheck SCRF=Check GenChk RB3LYP/6-31G(d) Fre
 q||acetophenone rdkit||0,1|C,-2.5974972951,0.7688149831,0.5073737926|C
 ,-1.7061793668,-0.4629871707,0.4950996629|O,-2.1775665562,-1.569731185
 7,0.7084621925|C,-0.2415652593,-0.29601397,0.2172565299|C,0.346265065,
 0.9532222145,-0.0333338185|C,1.714430261,1.0515061003,-0.2860942589|C,
 2.5080761628,-0.0970131176,-0.2908964614|C,1.9309572646,-1.3461868565,
 -0.0422008291|C,0.5662498605,-1.4441679471,0.2099147984|H,-2.573005314
 1,1.2838150065,-0.4604553047|H,-3.6203785694,0.4567336063,0.7244438386
 |H,-2.268273917,1.4870951885,1.2677715004|H,-0.2596772652,1.854180081,
 -0.0324987854|H,2.160414912,2.0233854935,-0.4790502329|H,3.5740783202,
 -0.0193771628,-0.4879585098|H,2.5476551419,-2.2409051894,-0.0456655657
 |H,0.0960155552,-2.4023700741,0.4055374512||Version=EM64W-G09RevD.01|S
 tate=1-A|HF=-384.8959951|RMSD=1.631e-009|RMSF=4.126e-005|ZeroPoint=0.1
 384944|Thermal=0.1462754|Dipole=0.6925669,0.9257705,-0.2310297|DipoleD
 eriv=-0.1835684,0.1911614,0.0216293,0.2212201,-0.2129417,-0.0061206,0.
 0181126,-0.0008372,0.0635619,1.6902346,-0.0096955,-0.2666719,0.0140714
 ,0.9472694,-0.0937677,-0.2694704,-0.0895857,0.2292545,-0.9278944,-0.14
 98985,0.1260969,-0.303493,-0.8439887,0.1160045,0.1441826,0.0889485,-0.
 3485628,-0.6934146,-0.0092702,0.1232959,0.0885212,-0.1021049,-0.003629
 ,0.1117792,0.0136154,-0.0215812,0.1194363,-0.1159309,-0.0253475,0.0667
 322,0.0206636,-0.026161,-0.0468466,0.0060396,-0.0941583,-0.1626442,0.1
 375756,-0.0079046,0.1726817,0.0916373,-0.0548323,-0.0120339,-0.0486406
 ,-0.1078385,0.1379785,0.0109512,-0.0407681,-0.0178887,0.0257667,-0.009
 9905,-0.0373767,-0.0150752,-0.0776059,-0.0506957,-0.1987758,0.0120842,
 -0.1600166,0.046904,0.0091875,0.0075265,0.0160197,-0.118003,0.0303171,
 0.1455597,-0.0362786,-0.0888744,0.0270748,0.0032693,-0.008706,-0.03806
 49,-0.0723302,0.0630012,-0.0009237,0.0417913,0.0102359,0.0325817,0.055
 2919,0.0215802,0.0623944,-0.0572945,-0.087413,-0.0045846,0.0297505,-0.
 0514206,0.0540299,0.0119184,0.0352619,0.0036599,0.0716193,0.0303633,-0
 .0373552,-0.0637655,-0.0202143,0.0024914,-0.0643331,-0.0468901,-0.0664
 428,0.0054397,0.0273622,0.086667,0.0031916,0.0873682,-0.0326842,0.0005
 949,0.0031089,0.0007187,0.102669,0.02332,-0.0573123,0.0226139,-0.07375
 97,-0.0778175,0.0354923,0.0245499,0.0325913,0.1051855,-0.1082891,-0.01
 11567,0.0398663,-0.0114187,0.0658342,0.0072559,0.0398962,0.0072096,0.1
 025195,-0.0080597,0.0815698,0.0118264,0.0904535,-0.0530392,0.0036397,0
 .0107819,0.0052068,0.1109397,0.0999659,-0.0585812,0.0085899,-0.0241982
 ,0.0083234,0.01618,0.0045438,0.0222425,0.1061852|Polar=112.1831056,0.4
 489601,90.8517637,-13.5578956,-6.5815104,38.7449492|PG=C01 [X(C8H8O1)]
 |NImag=0||0.56500997,0.06699694,0.50957202,-0.01354539,-0.00907447,0.5
 3633438,-0.14438699,0.04616351,0.00434559,0.55310345,0.05154258,-0.126
 28859,-0.00469875,0.12953975,0.86543301,0.00371072,-0.00374736,-0.0891
 6392,-0.07357793,-0.09852253,0.24683295,0.02062940,0.01391245,-0.00080
 423,-0.19095467,-0.21015397,0.04656547,0.21019368,-0.00887074,-0.05979
 776,0.01158409,-0.20067540,-0.61469322,0.09982064,0.24633248,0.6935210
 4,0.00187685,0.00756463,0.02413047,0.04545078,0.10149385,-0.08707967,-
 0.06168744,-0.12213365,0.04999049,-0.01460935,0.00259239,0.00503604,-0
 .17782625,0.02603272,0.01449559,-0.03105961,-0.04414767,0.01404910,0.5
 9668122,0.02472207,0.00728390,-0.00336992,0.01229617,-0.10355519,0.000
 81008,-0.05290942,-0.01456405,0.01329742,-0.00874156,0.69585193,0.0024
 3435,0.00053092,0.01519518,0.01610882,-0.00161134,-0.08088241,0.015081
 06,0.01175297,0.01512050,-0.07886886,-0.06344098,0.16484811,-0.0025100
 9,0.00078683,0.00011003,-0.01090548,-0.03058272,0.00545004,-0.00580045
 ,0.00034836,0.00151846,-0.15333938,-0.04101638,0.02062728,0.68394628,0
 .00050041,-0.00046702,-0.00019379,-0.01694732,0.00028333,0.00290821,0.
 00722570,0.00561028,-0.00157635,-0.09131071,-0.28484810,0.04211340,-0.
 04736241,0.70284627,0.00014344,-0.00024400,-0.00135932,0.00384634,0.00
 531116,-0.00170131,0.00070905,-0.00036344,0.00296086,0.02654428,0.0332
 4681,-0.07228880,-0.09112484,-0.05839918,0.15838004,0.00032243,-0.0000
 5283,-0.00032884,0.00614640,-0.00221581,0.00056793,-0.00313612,-0.0018
 5956,0.00047751,-0.01915792,-0.07480018,0.01379983,-0.33166414,0.01834
 029,0.04565420,0.66833469,0.00030748,-0.00008385,-0.00022989,-0.001441
 04,-0.00519128,0.00179275,-0.00144530,0.00051887,-0.00000236,-0.029006
 02,0.02401547,0.00337078,-0.04810062,-0.12948313,0.01660014,0.01592407
 ,0.72532237,-0.00037121,-0.00016642,-0.00149267,0.00047706,0.00192949,
 0.00757850,0.00042857,0.00007036,-0.00175238,0.00841220,0.01144430,0.0
 0637509,0.05347071,0.00488706,-0.07045872,-0.09695124,-0.07295638,0.15
 469292,-0.00013850,0.00010935,0.00006426,0.00045510,-0.00079563,-0.000
 09288,-0.00044065,0.00080567,-0.00002209,-0.00117618,0.00647907,-0.002
 01666,-0.03530956,0.02298603,0.00474406,-0.19619607,0.13274630,0.00823
 307,0.72706337,0.00035437,-0.00041735,0.00002170,0.00033312,-0.0040100
 0,0.00034211,-0.00179196,0.00015485,0.00029433,0.00542330,-0.06285912,
 0.00546332,0.07180721,0.04026041,-0.01657905,0.06622924,-0.27293236,0.
 01326597,-0.00759321,0.66452377,0.00003546,0.00006500,0.00028517,-0.00
 022588,0.00054099,-0.00062756,0.00028357,-0.00016352,-0.00005866,-0.00
 189247,0.00527703,-0.00857934,-0.00099919,-0.00797211,0.00805340,0.016
 05804,0.00153963,-0.06392579,-0.10355322,-0.06100127,0.16003658,-0.000
 75208,0.00026614,-0.00003119,0.00417818,0.00735081,-0.00036759,0.00114
 395,-0.00228143,-0.00003786,-0.03648726,0.06390278,0.00036961,-0.04514
 830,-0.02937307,0.01007808,0.06391706,-0.01365073,-0.00829937,-0.16349
 606,-0.04027544,0.02283211,0.68674587,0.00145590,0.00135546,-0.0005045
 5,0.00512150,-0.00518843,0.00053084,-0.00205524,0.00081602,0.00019651,
 0.01915679,0.03881294,-0.00697220,-0.02947534,-0.02100174,0.00677492,0
 .03279488,-0.05543707,0.00164952,-0.10670893,-0.29497502,0.04635353,-0
 .04683765,0.71213429,-0.00017136,-0.00029485,-0.00068726,-0.00010486,0
 .00013800,0.00700195,-0.00006465,0.00023622,-0.00061052,0.00563337,-0.
 01486061,0.00900700,0.01009008,0.00675683,-0.01015610,-0.01376327,0.00
 983759,0.00899924,0.03064740,0.03464184,-0.07033780,-0.09246407,-0.060
 10762,0.15437411,-0.00423285,-0.00373867,0.00152809,-0.03418517,0.0217
 8237,0.00392703,-0.00050295,0.00782555,-0.00084854,-0.17619659,0.06265
 220,0.01187167,0.05923131,0.02986376,-0.01246960,-0.05450997,0.0245104
 1,0.00540240,-0.01583287,-0.08008887,0.01339529,-0.34184560,0.01961254
 ,0.04713997,0.69238110,-0.00290585,0.00033089,0.00070191,0.01357149,0.
 01723807,-0.00411272,-0.00265051,-0.00860465,0.00146913,0.11227143,-0.
 25827586,0.00270397,-0.01151197,-0.05474975,0.00946153,0.02626509,-0.0
 1305097,-0.00397833,-0.03368574,0.02667460,0.00358950,-0.04536710,-0.1
 3145397,0.01624313,0.03004001,0.70731466,0.00143034,0.00084847,0.00158
 922,0.00489218,-0.00555926,0.00241252,0.00038440,-0.00037843,-0.000114
 99,0.00603472,0.01145150,-0.06945604,-0.00760218,0.00216744,0.00951219
 ,0.00519601,-0.00366907,-0.00799366,0.00793631,0.01177002,0.00392278,0
 .05478413,0.00478780,-0.07158532,-0.10087199,-0.07200664,0.16649638,-0
 .05064818,-0.00081092,0.00473455,0.00378049,0.00423355,-0.02017979,-0.
 00055718,0.00291580,0.00185202,-0.00077045,0.00001553,0.00226403,-0.00
 078796,0.00038142,0.00003954,-0.00013853,-0.00018509,-0.00020999,0.000
 00124,0.00010549,-0.00000592,-0.00017624,-0.00027641,-0.00008746,0.000
 46905,-0.00020433,0.00017651,0.04787460,-0.00157912,-0.10164321,0.1144
 2116,-0.00530029,-0.01162241,0.02572433,0.00341660,-0.00533784,-0.0036
 2426,-0.00015144,0.00009841,-0.00205468,-0.00039535,0.00030512,-0.0001
 5147,0.00040371,-0.00004822,-0.00003255,-0.00003067,0.00028050,-0.0000
 6859,-0.00021888,-0.00003917,0.00018295,0.00022215,-0.00025088,-0.0003
 4080,0.00283590,0.11053501,0.00641270,0.10991243,-0.25256320,0.0005355
 2,-0.00072003,0.00312171,-0.00098816,-0.00095881,-0.00064695,0.0000084
 8,0.00044163,-0.00038837,0.00052074,0.00099931,0.00031570,0.00000625,-
 0.00034225,0.00030084,0.00008019,-0.00011012,-0.00004329,0.00015882,0.
 00007248,0.00000270,-0.00038650,-0.00002114,0.00003380,-0.00731377,-0.
 12111394,0.27458192,-0.29222316,-0.07512684,0.05147461,-0.02230896,-0.
 00760036,0.00466319,0.00475169,-0.00200474,-0.00081086,-0.00059088,0.0
 0366889,-0.00004611,0.00051578,0.00046073,-0.00011369,0.00011470,-0.00
 004832,0.00001638,0.00000683,0.00007232,-0.00001042,-0.00016194,0.0003
 2989,-0.00003910,-0.00084870,-0.00065458,0.00027852,0.00240532,0.00076
 479,-0.00015518,0.31500651,-0.08029763,-0.07230089,0.01673335,0.030437
 71,0.00793459,-0.00640986,-0.00231131,0.00279395,-0.00006061,0.0015391
 8,-0.00496882,0.00050074,-0.00031217,-0.00107071,0.00020198,-0.0000716
 5,0.00036993,-0.00001025,-0.00008441,-0.00008047,0.00002387,0.00020038
 ,-0.00036957,-0.00001107,0.00135753,0.00063397,-0.00027929,-0.01335482
 ,-0.00443175,0.00108335,0.08163444,0.07638882,0.05208293,0.01582165,-0
 .06145590,0.00018929,0.00029716,-0.00100065,-0.00077495,-0.00011453,-0
 .00103459,0.00020426,0.00012517,0.00154416,-0.00002282,0.00006568,0.00
 017463,0.00001913,-0.00001436,0.00017366,0.00000801,-0.00000374,-0.000
 00497,-0.00002386,-0.00003395,-0.00015533,0.00004188,0.00007547,0.0002
 7802,0.02790060,0.00734538,-0.00412780,-0.05668589,-0.01773564,0.06006
 283,-0.07416935,-0.05012189,-0.05342678,0.01029073,0.00916025,0.016978
 28,-0.00114708,0.00272940,-0.00255108,-0.00146340,-0.00063336,-0.00186
 599,-0.00082667,0.00005924,0.00035989,-0.00003685,0.00001775,0.0003350
 0,-0.00003216,0.00012030,-0.00003063,-0.00015645,-0.00024668,0.0002174
 5,0.00047959,-0.00023070,-0.00030414,-0.00035886,0.00039150,0.00092271
 ,-0.00657350,-0.01865820,-0.02289117,0.07498156,-0.05272383,-0.1581872
 7,-0.12544386,-0.01314242,-0.01646592,-0.01859803,0.00472683,-0.004323
 75,0.00310171,0.00056415,0.00045164,0.00187168,-0.00037082,0.00012370,
 0.00034728,0.00040276,0.00004122,-0.00005919,-0.00003762,0.00030060,0.
 00000197,-0.00028679,-0.00007348,-0.00007403,0.00039377,-0.00015855,0.
 00027268,0.00482480,0.01189142,0.01149024,-0.00155013,-0.00551833,-0.0
 0569709,0.05756542,0.17148888,-0.05470868,-0.12152884,-0.17249686,0.00
 000773,0.00223301,0.00145391,-0.00000458,0.00087604,-0.00107010,0.0002
 6828,-0.00044302,-0.00004837,0.00002060,-0.00101623,0.00053577,0.00000
 421,0.00042219,0.00010973,-0.00008215,-0.00000830,-0.00002999,-0.00003
 092,0.00003951,0.00001714,0.00013526,0.00013824,-0.00006895,-0.0090114
 3,-0.02027806,-0.02032547,0.00149159,0.00607121,0.00593739,0.06178766,
 0.13281860,0.18652005,-0.00160601,-0.00023902,0.00061486,0.00029943,-0
 .00033742,-0.00076875,0.00031183,0.00055633,0.00000323,0.01205166,-0.0
 1047095,-0.00055889,-0.14606047,0.12927719,0.00413871,-0.01303688,0.02
 806007,-0.00040597,-0.00502920,-0.00199285,0.00242703,-0.00048637,-0.0
 0081770,0.00012764,-0.00069048,-0.00281369,0.00154698,-0.00125096,-0.0
 0021308,0.00013453,0.00009767,-0.00024279,-0.00006373,-0.00109830,-0.0
 0019315,0.00019844,0.15566109,0.00043161,0.00032448,0.00008829,0.00291
 570,-0.00057299,-0.00095094,-0.00080410,0.00045897,0.00017033,0.017301
 79,-0.01881391,-0.00061413,0.12919804,-0.25337625,0.00275804,-0.003190
 57,0.00574893,0.00028436,-0.00085458,0.00139738,0.00085774,-0.00074430
 ,0.00013139,0.00007954,-0.00405843,-0.00343193,0.00184936,-0.00039013,
 0.00020009,-0.00063506,-0.00000018,0.00056767,-0.00011681,-0.00008368,
 0.00034986,0.00056783,-0.14098863,0.26702362,0.00053597,0.00020650,0.0
 0160292,-0.00115160,-0.00037738,-0.00403882,0.00016337,-0.00006947,0.0
 0068088,-0.00382594,0.00428218,0.00206433,0.00414785,0.00274378,-0.037
 37178,0.00327050,-0.00522486,0.00342305,0.00229310,0.00105850,0.006879
 24,0.00011894,0.00009244,-0.00033982,0.00169343,0.00162991,0.00571671,
 -0.00020397,-0.00005694,-0.00024008,-0.00009227,-0.00007406,-0.0004007
 2,0.00054489,-0.00002221,-0.00054258,-0.00640327,-0.00358590,0.0268092
 9,-0.00008902,-0.00000742,0.00001782,0.00109156,-0.00132763,0.00007819
 ,-0.00102698,-0.00048251,0.00017268,-0.00546079,0.00168348,0.00205750,
 -0.00852053,-0.03000220,0.00538486,-0.10643290,-0.10185867,0.02449726,
 0.01175944,0.01780424,-0.00375227,-0.00174382,0.00312543,0.00116182,-0
 .00086580,0.00080013,0.00000628,-0.00000300,0.00000494,-0.00002116,-0.
 00004313,0.00003409,0.00000499,0.00000260,0.00001003,0.00002166,0.0009
 7719,0.00020210,-0.00089540,0.10905016,-0.00008979,0.00003752,0.000012
 25,0.00074648,0.00005651,-0.00006186,-0.00027042,-0.00013728,0.0000203
 3,-0.00011776,0.00175943,0.00067654,0.00113894,0.00199709,-0.00019998,
 -0.10189389,-0.28366081,0.04716320,-0.01337018,-0.01877135,0.00484246,
 0.00441216,-0.00226523,0.00030413,0.00084897,0.00028836,-0.00021844,0.
 00000094,0.00000391,0.00000975,-0.00002169,0.00000567,0.00000409,-0.00
 000358,0.00000180,-0.00000849,-0.00041179,0.00083197,-0.00049197,0.109
 73742,0.29996586,0.00002749,-0.00000228,0.00000241,-0.00016577,0.00030
 382,0.00064288,0.00014765,0.00005771,-0.00040262,0.00226950,0.00035896
 ,0.00689163,0.00172139,0.00528999,0.00107815,0.02450140,0.04715696,-0.
 04531278,-0.00008492,-0.00065333,0.00244767,0.00101041,0.00053097,0.00
 669137,0.00000055,-0.00020983,-0.00027165,0.00000712,-0.00000087,0.000
 00785,0.00001155,-0.00000575,0.00000654,-0.00000455,-0.00000098,0.0000
 0436,-0.00082320,-0.00060018,-0.00375132,-0.02764501,-0.05163821,0.036
 41350,-0.00007566,0.00000441,0.00004925,0.00015050,-0.00002148,-0.0002
 6608,-0.00022222,-0.00003415,0.00008624,0.00067936,0.00016814,-0.00021
 522,0.00022847,0.00359689,0.00081156,-0.01328500,-0.00399862,0.0033886
 7,-0.32827418,-0.01895732,0.05346640,-0.00859284,0.00164264,0.00190337
 ,0.00111425,-0.00251546,0.00136091,0.00003753,0.00000737,0.00001862,-0
 .00002467,-0.00001444,0.00000172,0.00000518,-0.00000685,-0.00003974,-0
 .00075865,-0.00023133,0.00017140,0.00075839,0.00013317,-0.00082902,0.3
 4799376,0.00001874,0.00001539,0.00001919,-0.00007161,-0.00019715,-0.00
 012571,-0.00012281,0.00027162,0.00001841,0.00020721,-0.00131499,0.0000
 6767,0.00260923,-0.00415125,0.00087916,0.02697196,0.00676402,-0.005166
 20,-0.01904879,-0.06232665,0.00626191,-0.02923320,0.00332914,0.0051502
 0,-0.00152821,-0.00509736,0.00171081,-0.00001748,0.00001058,-0.0000495
 1,-0.00000370,0.00003352,-0.00000618,-0.00001586,0.00001657,0.00004316
 ,0.00140974,0.00015784,-0.00026013,-0.00058396,0.00093800,-0.00046093,
 0.02036233,0.06045895,0.00004757,0.00002172,0.00019569,-0.00026021,-0.
 00013456,-0.00131141,0.00009666,0.00000279,0.00022672,-0.00021979,0.00
 007456,-0.00039925,0.00092768,0.00070500,0.00698566,-0.00025465,0.0002
 9367,0.00327881,0.05347714,0.00624579,-0.04780585,0.00553566,-0.000292
 99,0.00235846,0.00124472,0.00188491,0.00671407,0.00005167,0.00001316,-
 0.00004932,0.00000046,-0.00000428,-0.00002410,-0.00006882,-0.00002547,
 -0.00002296,-0.00002164,0.00002918,0.00005960,-0.00074467,-0.00058735,
 -0.00365489,-0.05920498,-0.00767300,0.03708934,-0.00050809,-0.00024065
 ,0.00006953,0.00032846,0.00218435,-0.00024294,-0.00014179,-0.00053081,
 0.00010761,-0.00491064,-0.00212368,0.00246076,-0.00065634,-0.00096368,
 0.00019908,-0.00039006,-0.00258988,0.00158783,0.01159439,-0.01257792,-
 0.00013338,-0.14918483,0.13086162,0.00446774,-0.01352735,0.02767463,-0
 .00041543,-0.00000067,0.00001661,-0.00001649,-0.00012251,0.00012773,-0
 .00000075,0.00002072,0.00000489,0.00001157,0.00004234,0.00011548,-0.00
 025591,0.00049360,-0.00071904,0.00005913,0.00071446,0.00039420,-0.0008
 3085,0.15521134,-0.00002192,0.00000991,-0.00002957,-0.00051148,0.00009
 196,0.00012737,0.00022097,0.00011993,-0.00003963,-0.00069452,0.0013932
 5,0.00085622,-0.00096672,0.00009949,0.00013872,-0.00381571,-0.00323047
 ,0.00186306,0.01848471,-0.01868007,-0.00077362,0.13057787,-0.24972457,
 0.00206166,-0.00297433,0.00607408,0.00011373,-0.00000996,-0.00000722,-
 0.00000757,0.00000411,0.00000424,-0.00000611,0.00000444,-0.00001495,0.
 00001192,0.00010106,0.00000399,-0.00017501,0.00098521,-0.00103666,-0.0
 0001065,-0.00034710,0.00098233,-0.00049380,-0.14123328,0.26322872,0.00
 004378,0.00000899,-0.00028310,0.00007421,-0.00034793,0.00043596,0.0000
 1917,0.00009293,0.00009996,0.00229269,0.00110821,0.00709629,0.00019944
 ,0.00013817,-0.00022153,0.00173201,0.00164696,0.00638927,-0.00378761,0
 .00470251,0.00255906,0.00450109,0.00201163,-0.03754878,0.00319015,-0.0
 0528949,0.00264341,-0.00004628,0.00004319,0.00001026,0.00001379,-0.000
 02790,-0.00004068,0.00004454,-0.00004362,-0.00000340,-0.00025421,-0.00
 017755,-0.00126648,-0.00014136,0.00028980,0.00034004,-0.00074364,-0.00
 062449,-0.00353077,-0.00619279,-0.00302819,0.02728679,-0.00001248,-0.0
 0049379,0.00009179,0.00074321,0.00120865,-0.00094048,-0.00204083,-0.00
 062656,0.00036339,0.01363646,0.01510719,-0.00350319,-0.00239249,0.0032
 6774,0.00105504,-0.00085085,0.00075820,-0.00001135,-0.00495494,0.00102
 798,0.00210548,-0.00775329,-0.02768326,0.00530594,-0.11043695,-0.10808
 285,0.02516646,0.00012380,-0.00017477,0.00008270,-0.00000106,0.0000163
 8,0.00001035,0.00008224,-0.00018104,-0.00006949,0.00057611,0.00118122,
 -0.00011109,0.00005305,-0.00011992,-0.00020373,-0.00044869,-0.00134780
 ,0.00022404,0.00103697,0.00019664,-0.00094500,0.11263973,0.00015876,0.
 00025637,-0.00003714,-0.00303586,-0.00325229,0.00047269,-0.00132000,0.
 00319302,-0.00018978,-0.01091927,-0.02046692,0.00478512,0.00420589,-0.
 00237775,0.00021739,0.00056820,0.00033734,-0.00018801,0.00059861,0.001
 46027,0.00062549,0.00155846,0.00394899,-0.00028392,-0.10672074,-0.2834
 8070,0.04748014,-0.00006428,0.00005564,-0.00005075,0.00007536,0.000008
 17,-0.00000618,-0.00005436,0.00007656,0.00006124,-0.00068331,-0.001001
 11,0.00032460,-0.00012468,-0.00001480,-0.00011541,0.00021181,0.0001094
 6,-0.00005931,-0.00040058,0.00068603,-0.00050325,0.11594600,0.30046174
 ,0.00001504,0.00007792,0.00016676,-0.00044127,-0.00027570,-0.00367462,
 0.00044503,-0.00031190,-0.00043941,-0.00044144,0.00019669,0.00390029,0
 .00094472,0.00038280,0.00556116,0.00001095,-0.00022149,-0.00038513,0.0
 0215598,0.00054971,0.00722935,0.00186602,0.00487115,0.00296895,0.02500
 620,0.04772046,-0.04982848,0.00003257,-0.00000801,0.00000969,0.0000034
 2,0.00000422,0.00006751,-0.00004727,0.00006032,0.00003032,0.00010825,-
 0.00000410,0.00071558,-0.00020318,-0.00011624,-0.00113315,0.00004056,0
 .00021563,-0.00010980,-0.00087472,-0.00060852,-0.00396630,-0.02862087,
 -0.05253293,0.03888727||-0.00002216,-0.00007065,0.00001630,-0.00003045
 ,-0.00006234,-0.00000013,-0.00000629,0.00007469,-0.00000311,-0.0000092
 9,-0.00011849,0.00001908,0.00011318,0.00006333,-0.00002698,-0.00005486
 ,0.00001956,0.00000707,0.00002667,-0.00007262,0.00000387,0.00008688,0.
 00007849,-0.00002474,-0.00008324,0.00007427,0.00000627,0.00000226,0.00
 001604,0.00000849,-0.00000366,-0.00000254,0.00000110,-0.00000223,0.000
 01503,-0.00001205,-0.00000429,-0.00001375,0.00000256,-0.00000653,0.000
 00884,0.00000007,-0.00000674,0.00001498,-0.00000053,-0.00001810,-0.000
 01068,0.00000441,0.00001884,-0.00001415,-0.00000167|||@


 GARBAGE IN, GARBAGE OUT
 Job cpu time:       0 days  0 hours  2 minutes 43.0 seconds.
 File lengths (MBytes):  RWF=     50 Int=      0 D2E=      0 Chk=      3 Scr=      1
 Normal termination of Gaussian 09 at Fri Mar 20 17:33:09 2026.
