 Entering Gaussian System, Link 0=C:\G09W\g09.exe
 Input=MEK_rdkit.com
 Output=C:\workspace\delta_chem\data\raw\MEK\MEK_rdkit.out
 Initial command:
 C:\G09W\l1.exe ".\Gau-20436.inp" "C:\workspace\delta_chem\data\raw\MEK\MEK_rdkit.out" /scrdir=".\"
 Entering Link 1 = C:\G09W\l1.exe PID=     11616.
  
 Copyright (c) 1988,1990,1992,1993,1995,1998,2003,2009,2013,
            Gaussian, Inc.  All Rights Reserved.
  
 This is part of the Gaussian(R) 09 program.  It is based on
 the Gaussian(R) 03 system (copyright 2003, Gaussian, Inc.),
 the Gaussian(R) 98 system (copyright 1998, Gaussian, Inc.),
 the Gaussian(R) 94 system (copyright 1995, Gaussian, Inc.),
 the Gaussian 92(TM) system (copyright 1992, Gaussian, Inc.),
 the Gaussian 90(TM) system (copyright 1990, Gaussian, Inc.),
 the Gaussian 88(TM) system (copyright 1988, Gaussian, Inc.),
 the Gaussian 86(TM) system (copyright 1986, Carnegie Mellon
 University), and the Gaussian 82(TM) system (copyright 1983,
 Carnegie Mellon University). Gaussian is a federally registered
 trademark of Gaussian, Inc.
  
 This software contains proprietary and confidential information,
 including trade secrets, belonging to Gaussian, Inc.
  
 This software is provided under written license and may be
 used, copied, transmitted, or stored only in accord with that
 written license.
  
 The following legend is applicable only to US Government
 contracts under FAR:
  
                    RESTRICTED RIGHTS LEGEND
  
 Use, reproduction and disclosure by the US Government is
 subject to restrictions as set forth in subparagraphs (a)
 and (c) of the Commercial Computer Software - Restricted
 Rights clause in FAR 52.227-19.
  
 Gaussian, Inc.
 340 Quinnipiac St., Bldg. 40, Wallingford CT 06492
  
  
 ---------------------------------------------------------------
 Warning -- This program may not be used in any manner that
 competes with the business of Gaussian, Inc. or will provide
 assistance to any competitor of Gaussian, Inc.  The licensee
 of this program is prohibited from giving any competitor of
 Gaussian, Inc. access to this program.  By using this program,
 the user acknowledges that Gaussian, Inc. is engaged in the
 business of creating and licensing software in the field of
 computational chemistry and represents and warrants to the
 licensee that it is not a competitor of Gaussian, Inc. and that
 it will not use this program in any manner prohibited above.
 ---------------------------------------------------------------
  

 Cite this work as:
 Gaussian 09, Revision D.01,
 M. J. Frisch, G. W. Trucks, H. B. Schlegel, G. E. Scuseria, 
 M. A. Robb, J. R. Cheeseman, G. Scalmani, V. Barone, B. Mennucci, 
 G. A. Petersson, H. Nakatsuji, M. Caricato, X. Li, H. P. Hratchian, 
 A. F. Izmaylov, J. Bloino, G. Zheng, J. L. Sonnenberg, M. Hada, 
 M. Ehara, K. Toyota, R. Fukuda, J. Hasegawa, M. Ishida, T. Nakajima, 
 Y. Honda, O. Kitao, H. Nakai, T. Vreven, J. A. Montgomery, Jr., 
 J. E. Peralta, F. Ogliaro, M. Bearpark, J. J. Heyd, E. Brothers, 
 K. N. Kudin, V. N. Staroverov, T. Keith, R. Kobayashi, J. Normand, 
 K. Raghavachari, A. Rendell, J. C. Burant, S. S. Iyengar, J. Tomasi, 
 M. Cossi, N. Rega, J. M. Millam, M. Klene, J. E. Knox, J. B. Cross, 
 V. Bakken, C. Adamo, J. Jaramillo, R. Gomperts, R. E. Stratmann, 
 O. Yazyev, A. J. Austin, R. Cammi, C. Pomelli, J. W. Ochterski, 
 R. L. Martin, K. Morokuma, V. G. Zakrzewski, G. A. Voth, 
 P. Salvador, J. J. Dannenberg, S. Dapprich, A. D. Daniels, 
 O. Farkas, J. B. Foresman, J. V. Ortiz, J. Cioslowski, 
 and D. J. Fox, Gaussian, Inc., Wallingford CT, 2013.
 
 ******************************************
 Gaussian 09:  EM64W-G09RevD.01 13-Apr-2013
                19-Mar-2026 
 ******************************************
 %NProcShared=4
 Will use up to    4 processors via shared memory.
 %Mem=4GB
 %Chk=MEK_rdkit.chk
 ---------------------
 #p opt B3LYP/6-31G(d)
 ---------------------
 1/14=-1,18=20,19=15,26=3,38=1/1,3;
 2/9=110,12=2,17=6,18=5,40=1/2;
 3/5=1,6=6,7=1,11=2,16=1,25=1,30=1,71=1,74=-5/1,2,3;
 4//1;
 5/5=2,38=5/2;
 6/7=2,8=2,9=2,10=2,28=1/1;
 7//1,2,3,16;
 1/14=-1,18=20,19=15,26=3/3(2);
 2/9=110/2;
 99//99;
 2/9=110/2;
 3/5=1,6=6,7=1,11=2,16=1,25=1,30=1,71=1,74=-5/1,2,3;
 4/5=5,16=3,69=1/1;
 5/5=2,38=5/2;
 7//1,2,3,16;
 1/14=-1,18=20,19=15,26=3/3(-5);
 2/9=110/2;
 6/7=2,8=2,9=2,10=2,19=2,28=1/1;
 99/9=1/99;
 Leave Link    1 at Thu Mar 19 18:32:11 2026, MaxMem=   536870912 cpu:         0.0
 (Enter C:\G09W\l101.exe)
 ---
 MEK
 ---
 Symbolic Z-matrix:
 Charge =  0 Multiplicity = 1
 C                     1.54751  -0.25161  -0.40263 
 C                     0.51587  -0.51118   0.67658 
 C                    -0.59448   0.51574   0.6324 
 C                    -1.64152   0.35686  -0.43864 
 O                    -0.62609   1.45831   1.42352 
 H                     2.37223  -0.96627  -0.32143 
 H                     1.95881   0.75967  -0.31751 
 H                     1.11052  -0.34994  -1.40143 
 H                     0.08102  -1.51058   0.57204 
 H                     0.98594  -0.46689   1.66532 
 H                    -1.19854   0.53582  -1.42078 
 H                    -2.4459    1.07949  -0.27456 
 H                    -2.06538  -0.6494   -0.39288 
 
 NAtoms=     13 NQM=       13 NQMF=       0 NMMI=      0 NMMIF=      0
                NMic=       0 NMicF=      0.
                    Isotopes and Nuclear Properties:
 (Nuclear quadrupole moments (NQMom) in fm**2, nuclear magnetic moments (NMagM)
  in nuclear magnetons)

  Atom         1           2           3           4           5           6           7           8           9          10
 IAtWgt=          12          12          12          12          16           1           1           1           1           1
 AtmWgt=  12.0000000  12.0000000  12.0000000  12.0000000  15.9949146   1.0078250   1.0078250   1.0078250   1.0078250   1.0078250
 NucSpn=           0           0           0           0           0           1           1           1           1           1
 AtZEff=   0.0000000   0.0000000   0.0000000   0.0000000   0.0000000   0.0000000   0.0000000   0.0000000   0.0000000   0.0000000
 NQMom=    0.0000000   0.0000000   0.0000000   0.0000000   0.0000000   0.0000000   0.0000000   0.0000000   0.0000000   0.0000000
 NMagM=    0.0000000   0.0000000   0.0000000   0.0000000   0.0000000   2.7928460   2.7928460   2.7928460   2.7928460   2.7928460
 AtZNuc=   6.0000000   6.0000000   6.0000000   6.0000000   8.0000000   1.0000000   1.0000000   1.0000000   1.0000000   1.0000000

  Atom        11          12          13
 IAtWgt=           1           1           1
 AtmWgt=   1.0078250   1.0078250   1.0078250
 NucSpn=           1           1           1
 AtZEff=   0.0000000   0.0000000   0.0000000
 NQMom=    0.0000000   0.0000000   0.0000000
 NMagM=    2.7928460   2.7928460   2.7928460
 AtZNuc=   1.0000000   1.0000000   1.0000000
 Leave Link  101 at Thu Mar 19 18:32:12 2026, MaxMem=   536870912 cpu:         0.0
 (Enter C:\G09W\l103.exe)

 GradGradGradGradGradGradGradGradGradGradGradGradGradGradGradGradGradGrad
 Berny optimization.
 Initialization pass.
                           ----------------------------
                           !    Initial Parameters    !
                           ! (Angstroms and Degrees)  !
 --------------------------                            --------------------------
 ! Name  Definition              Value          Derivative Info.                !
 --------------------------------------------------------------------------------
 ! R1    R(1,2)                  1.5154         estimate D2E/DX2                !
 ! R2    R(1,6)                  1.0943         estimate D2E/DX2                !
 ! R3    R(1,7)                  1.095          estimate D2E/DX2                !
 ! R4    R(1,8)                  1.0946         estimate D2E/DX2                !
 ! R5    R(2,3)                  1.5131         estimate D2E/DX2                !
 ! R6    R(2,9)                  1.0949         estimate D2E/DX2                !
 ! R7    R(2,10)                 1.0957         estimate D2E/DX2                !
 ! R8    R(3,4)                  1.5062         estimate D2E/DX2                !
 ! R9    R(3,5)                  1.231          estimate D2E/DX2                !
 ! R10   R(4,11)                 1.0922         estimate D2E/DX2                !
 ! R11   R(4,12)                 1.0937         estimate D2E/DX2                !
 ! R12   R(4,13)                 1.0928         estimate D2E/DX2                !
 ! A1    A(2,1,6)              110.3872         estimate D2E/DX2                !
 ! A2    A(2,1,7)              111.0099         estimate D2E/DX2                !
 ! A3    A(2,1,8)              111.2635         estimate D2E/DX2                !
 ! A4    A(6,1,7)              108.3176         estimate D2E/DX2                !
 ! A5    A(6,1,8)              108.0539         estimate D2E/DX2                !
 ! A6    A(7,1,8)              107.688          estimate D2E/DX2                !
 ! A7    A(1,2,3)              111.256          estimate D2E/DX2                !
 ! A8    A(1,2,9)              111.0223         estimate D2E/DX2                !
 ! A9    A(1,2,10)             110.1006         estimate D2E/DX2                !
 ! A10   A(3,2,9)              108.9817         estimate D2E/DX2                !
 ! A11   A(3,2,10)             108.2846         estimate D2E/DX2                !
 ! A12   A(9,2,10)             107.0639         estimate D2E/DX2                !
 ! A13   A(2,3,4)              117.3418         estimate D2E/DX2                !
 ! A14   A(2,3,5)              121.3168         estimate D2E/DX2                !
 ! A15   A(4,3,5)              121.3261         estimate D2E/DX2                !
 ! A16   A(3,4,11)             109.8898         estimate D2E/DX2                !
 ! A17   A(3,4,12)             109.5663         estimate D2E/DX2                !
 ! A18   A(3,4,13)             109.6923         estimate D2E/DX2                !
 ! A19   A(11,4,12)            108.9617         estimate D2E/DX2                !
 ! A20   A(11,4,13)            110.2328         estimate D2E/DX2                !
 ! A21   A(12,4,13)            108.4723         estimate D2E/DX2                !
 ! D1    D(6,1,2,3)            176.7297         estimate D2E/DX2                !
 ! D2    D(6,1,2,9)            -61.7102         estimate D2E/DX2                !
 ! D3    D(6,1,2,10)            56.6747         estimate D2E/DX2                !
 ! D4    D(7,1,2,3)             56.6041         estimate D2E/DX2                !
 ! D5    D(7,1,2,9)            178.1641         estimate D2E/DX2                !
 ! D6    D(7,1,2,10)           -63.4509         estimate D2E/DX2                !
 ! D7    D(8,1,2,3)            -63.3101         estimate D2E/DX2                !
 ! D8    D(8,1,2,9)             58.2499         estimate D2E/DX2                !
 ! D9    D(8,1,2,10)           176.6348         estimate D2E/DX2                !
 ! D10   D(1,2,3,4)             77.3278         estimate D2E/DX2                !
 ! D11   D(1,2,3,5)           -101.2688         estimate D2E/DX2                !
 ! D12   D(9,2,3,4)            -45.414          estimate D2E/DX2                !
 ! D13   D(9,2,3,5)            135.9894         estimate D2E/DX2                !
 ! D14   D(10,2,3,4)          -161.5478         estimate D2E/DX2                !
 ! D15   D(10,2,3,5)            19.8556         estimate D2E/DX2                !
 ! D16   D(2,3,4,11)           -67.7395         estimate D2E/DX2                !
 ! D17   D(2,3,4,12)           172.5701         estimate D2E/DX2                !
 ! D18   D(2,3,4,13)            53.5998         estimate D2E/DX2                !
 ! D19   D(5,3,4,11)           110.8569         estimate D2E/DX2                !
 ! D20   D(5,3,4,12)            -8.8335         estimate D2E/DX2                !
 ! D21   D(5,3,4,13)          -127.8038         estimate D2E/DX2                !
 --------------------------------------------------------------------------------
 Trust Radius=3.00D-01 FncErr=1.00D-07 GrdErr=1.00D-06
 Number of steps in this run=     64 maximum allowed number of steps=    100.
 GradGradGradGradGradGradGradGradGradGradGradGradGradGradGradGradGradGrad

 Leave Link  103 at Thu Mar 19 18:32:12 2026, MaxMem=   536870912 cpu:         0.0
 (Enter C:\G09W\l202.exe)
                          Input orientation:                          
 ---------------------------------------------------------------------
 Center     Atomic      Atomic             Coordinates (Angstroms)
 Number     Number       Type             X           Y           Z
 ---------------------------------------------------------------------
      1          6           0        1.547514   -0.251612   -0.402634
      2          6           0        0.515867   -0.511184    0.676578
      3          6           0       -0.594477    0.515735    0.632400
      4          6           0       -1.641516    0.356856   -0.438635
      5          8           0       -0.626093    1.458311    1.423519
      6          1           0        2.372232   -0.966266   -0.321432
      7          1           0        1.958807    0.759671   -0.317507
      8          1           0        1.110522   -0.349940   -1.401433
      9          1           0        0.081023   -1.510584    0.572041
     10          1           0        0.985935   -0.466892    1.665324
     11          1           0       -1.198541    0.535821   -1.420781
     12          1           0       -2.445895    1.079488   -0.274563
     13          1           0       -2.065378   -0.649404   -0.392878
 ---------------------------------------------------------------------
                    Distance matrix (angstroms):
                    1          2          3          4          5
     1  C    0.000000
     2  C    1.515378   0.000000
     3  C    2.499648   1.513069   0.000000
     4  C    3.246759   2.579049   1.506204   0.000000
     5  O    3.314097   2.396018   1.230983   2.389959   0.000000
     6  H    1.094296   2.156204   3.450722   4.227832   4.232420
     7  H    1.095035   2.164568   2.735158   3.624811   3.193897
     8  H    1.094637   2.167428   2.791575   3.000042   3.777030
     9  H    2.164624   1.094905   2.136800   2.734216   3.168496
    10  H    2.153640   1.095694   2.128424   3.465358   2.522600
    11  H    3.032737   2.904192   2.140292   1.092184   3.044458
    12  H    4.211359   3.493843   2.137323   1.093683   2.517671
    13  H    3.634738   2.797439   2.138292   1.092846   3.132619
                    6          7          8          9         10
     6  H    0.000000
     7  H    1.774766   0.000000
     8  H    1.771489   1.767970   0.000000
     9  H    2.518772   3.077568   2.510291   0.000000
    10  H    2.473539   2.526372   3.071514   1.761654   0.000000
    11  H    4.026817   3.352039   2.473200   3.129920   3.911702
    12  H    5.234659   4.416506   3.995147   3.716252   4.234609
    13  H    4.449482   4.264415   3.345624   2.505940   3.685107
                   11         12         13
    11  H    0.000000
    12  H    1.779124   0.000000
    13  H    1.792414   1.774221   0.000000
 Stoichiometry    C4H8O
 Framework group  C1[X(C4H8O)]
 Deg. of freedom    33
 Full point group                 C1      NOp   1
 Largest Abelian subgroup         C1      NOp   1
 Largest concise Abelian subgroup C1      NOp   1
                         Standard orientation:                         
 ---------------------------------------------------------------------
 Center     Atomic      Atomic             Coordinates (Angstroms)
 Number     Number       Type             X           Y           Z
 ---------------------------------------------------------------------
      1          6           0       -1.838605    0.218249   -0.406390
      2          6           0       -0.837647   -0.229282    0.639636
      3          6           0        0.572934   -0.210422    0.092569
      4          6           0        1.253794    1.128464   -0.019070
      5          8           0        1.131904   -1.245004   -0.271453
      6          1           0       -2.857842    0.144087   -0.015057
      7          1           0       -1.769571   -0.401646   -1.306427
      8          1           0       -1.664203    1.257143   -0.703900
      9          1           0       -0.884113    0.410603    1.526883
     10          1           0       -1.065819   -1.249765    0.966893
     11          1           0        0.761455    1.733070   -0.783871
     12          1           0        2.301068    0.984556   -0.299515
     13          1           0        1.220938    1.639929    0.946143
 ---------------------------------------------------------------------
 Rotational constants (GHZ):      7.5723452      3.8523100      3.0189578
 Leave Link  202 at Thu Mar 19 18:32:13 2026, MaxMem=   536870912 cpu:         0.0
 (Enter C:\G09W\l301.exe)
 Standard basis: 6-31G(d) (6D, 7F)
 Ernie: Thresh=  0.10000D-02 Tol=  0.10000D-05 Strict=F.
 There are    91 symmetry adapted cartesian basis functions of A   symmetry.
 There are    91 symmetry adapted basis functions of A   symmetry.
    91 basis functions,   172 primitive gaussians,    91 cartesian basis functions
    20 alpha electrons       20 beta electrons
       nuclear repulsion energy       176.3415367810 Hartrees.
 IExCor=  402 DFT=T Ex+Corr=B3LYP ExCW=0 ScaHFX=  0.200000
 ScaDFX=  0.800000  0.720000  1.000000  0.810000 ScalE2=  1.000000  1.000000
 IRadAn=      0 IRanWt=     -1 IRanGd=            0 ICorTp=0 IEmpDi=  4
 NAtoms=   13 NActive=   13 NUniq=   13 SFac= 1.00D+00 NAtFMM=   60 NAOKFM=F Big=F
 Integral buffers will be    131072 words long.
 Raffenetti 2 integral format.
 Two-electron integral symmetry is turned on.
 Leave Link  301 at Thu Mar 19 18:32:13 2026, MaxMem=   536870912 cpu:         0.0
 (Enter C:\G09W\l302.exe)
 NPDir=0 NMtPBC=     1 NCelOv=     1 NCel=       1 NClECP=     1 NCelD=      1
         NCelK=      1 NCelE2=     1 NClLst=     1 CellRange=     0.0.
 One-electron integrals computed using PRISM.
 NBasis=    91 RedAO= T EigKep=  4.50D-03  NBF=    91
 NBsUse=    91 1.00D-06 EigRej= -1.00D+00 NBFU=    91
 Precomputing XC quadrature grid using
 IXCGrd= 4 IRadAn=           0 IRanWt=          -1 IRanGd=           0 AccXCQ= 0.00D+00.
 Generated NRdTot=       0 NPtTot=           0 NUsed=           0 NTot=          32
 NSgBfM=    91    91    91    91    91 MxSgAt=    13 MxSgA2=    13.
 Leave Link  302 at Thu Mar 19 18:32:14 2026, MaxMem=   536870912 cpu:         1.0
 (Enter C:\G09W\l303.exe)
 DipDrv:  MaxL=1.
 Leave Link  303 at Thu Mar 19 18:32:14 2026, MaxMem=   536870912 cpu:         0.0
 (Enter C:\G09W\l401.exe)
 ExpMin= 1.61D-01 ExpMax= 5.48D+03 ExpMxC= 8.25D+02 IAcc=1 IRadAn=         1 AccDes= 0.00D+00
 Harris functional with IExCor=  402 and IRadAn=       1 diagonalized for initial guess.
 HarFok:  IExCor=  402 AccDes= 0.00D+00 IRadAn=         1 IDoV= 1 UseB2=F ITyADJ=14
 ICtDFT=  3500011 ScaDFX=  1.000000  1.000000  1.000000  1.000000
 FoFCou: FMM=F IPFlag=           0 FMFlag=      100000 FMFlg1=           0
         NFxFlg=           0 DoJE=T BraDBF=F KetDBF=T FulRan=T
         wScrn=  0.000000 ICntrl=     500 IOpCl=  0 I1Cent=   200000004 NGrid=           0
         NMat0=    1 NMatS0=      1 NMatT0=    0 NMatD0=    1 NMtDS0=    0 NMtDT0=    0
 Petite list used in FoFCou.
 Harris En= -232.523468622039    
 JPrj=0 DoOrth=F DoCkMO=F.
 Leave Link  401 at Thu Mar 19 18:32:15 2026, MaxMem=   536870912 cpu:         1.0
 (Enter C:\G09W\l502.exe)
 Closed shell SCF:
 Using DIIS extrapolation, IDIIS=  1040.
 Integral symmetry usage will be decided dynamically.
 Keep R1 ints in memory in canonical form, NReq=9719015.
 IVT=       44638 IEndB=       44638 NGot=   536870912 MDV=   528062884
 LenX=   528062884 LenY=   528054162
 Requested convergence on RMS density matrix=1.00D-08 within 128 cycles.
 Requested convergence on MAX density matrix=1.00D-06.
 Requested convergence on             energy=1.00D-06.
 No special actions if energy rises.
 FoFCou: FMM=F IPFlag=           0 FMFlag=           0 FMFlg1=           0
         NFxFlg=           0 DoJE=F BraDBF=F KetDBF=F FulRan=T
         wScrn=  0.000000 ICntrl=     600 IOpCl=  0 I1Cent=           0 NGrid=           0
         NMat0=    1 NMatS0=   4186 NMatT0=    0 NMatD0=    1 NMtDS0=    0 NMtDT0=    0
 Symmetry not used in FoFCou.
 Integral accuracy reduced to 1.0D-05 until final iterations.

 Cycle   1  Pass 0  IDiag  1:
 E= -232.267247175534    
 DIIS: error= 3.95D-02 at cycle   1 NSaved=   1.
 NSaved= 1 IEnMin= 1 EnMin= -232.267247175534     IErMin= 1 ErrMin= 3.95D-02
 ErrMax= 3.95D-02  0.00D+00 EMaxC= 1.00D-01 BMatC= 2.05D-01 BMatP= 2.05D-01
 IDIUse=3 WtCom= 6.05D-01 WtEn= 3.95D-01
 Coeff-Com:  0.100D+01
 Coeff-En:   0.100D+01
 Coeff:      0.100D+01
 Gap=     0.139 Goal=   None    Shift=    0.000
 GapD=    0.139 DampG=1.000 DampE=0.500 DampFc=0.5000 IDamp=-1.
 Damping current iteration by 5.00D-01
 RMSDP=1.12D-02 MaxDP=1.72D-01              OVMax= 2.26D-01

 Cycle   2  Pass 0  IDiag  1:
 E= -232.343855496956     Delta-E=       -0.076608321421 Rises=F Damp=T
 DIIS: error= 1.20D-02 at cycle   2 NSaved=   2.
 NSaved= 2 IEnMin= 2 EnMin= -232.343855496956     IErMin= 2 ErrMin= 1.20D-02
 ErrMax= 1.20D-02  0.00D+00 EMaxC= 1.00D-01 BMatC= 1.97D-02 BMatP= 2.05D-01
 IDIUse=3 WtCom= 8.80D-01 WtEn= 1.20D-01
 Coeff-Com:  0.161D+00 0.839D+00
 Coeff-En:   0.226D+00 0.774D+00
 Coeff:      0.169D+00 0.831D+00
 Gap=     0.228 Goal=   None    Shift=    0.000
 RMSDP=2.85D-03 MaxDP=5.18D-02 DE=-7.66D-02 OVMax= 1.83D-01

 Cycle   3  Pass 0  IDiag  1:
 E= -232.446177986432     Delta-E=       -0.102322489476 Rises=F Damp=F
 DIIS: error= 1.70D-02 at cycle   3 NSaved=   3.
 NSaved= 3 IEnMin= 3 EnMin= -232.446177986432     IErMin= 2 ErrMin= 1.20D-02
 ErrMax= 1.70D-02  0.00D+00 EMaxC= 1.00D-01 BMatC= 2.38D-02 BMatP= 1.97D-02
 IDIUse=2 WtCom= 0.00D+00 WtEn= 1.00D+00
 Coeff-En:   0.000D+00 0.000D+00 0.100D+01
 Coeff:      0.000D+00 0.000D+00 0.100D+01
 Gap=     0.198 Goal=   None    Shift=    0.000
 RMSDP=4.55D-03 MaxDP=1.03D-01 DE=-1.02D-01 OVMax= 2.00D-01

 Cycle   4  Pass 0  IDiag  1:
 E= -232.361655767114     Delta-E=        0.084522219318 Rises=F Damp=F
 DIIS: error= 3.87D-02 at cycle   4 NSaved=   4.
 NSaved= 4 IEnMin= 3 EnMin= -232.446177986432     IErMin= 2 ErrMin= 1.20D-02
 ErrMax= 3.87D-02  0.00D+00 EMaxC= 1.00D-01 BMatC= 1.31D-01 BMatP= 1.97D-02
 IDIUse=2 WtCom= 0.00D+00 WtEn= 1.00D+00
 Coeff-En:   0.000D+00 0.000D+00 0.785D+00 0.215D+00
 Coeff:      0.000D+00 0.000D+00 0.785D+00 0.215D+00
 Gap=     0.214 Goal=   None    Shift=    0.000
 RMSDP=2.52D-03 MaxDP=5.48D-02 DE= 8.45D-02 OVMax= 1.05D-01

 Cycle   5  Pass 0  IDiag  1:
 E= -232.459236691690     Delta-E=       -0.097580924575 Rises=F Damp=F
 DIIS: error= 1.00D-02 at cycle   5 NSaved=   5.
 NSaved= 5 IEnMin= 5 EnMin= -232.459236691690     IErMin= 5 ErrMin= 1.00D-02
 ErrMax= 1.00D-02  0.00D+00 EMaxC= 1.00D-01 BMatC= 8.72D-03 BMatP= 1.97D-02
 IDIUse=3 WtCom= 9.00D-01 WtEn= 1.00D-01
 Coeff-Com: -0.101D-01 0.333D-01 0.268D+00-0.109D+00 0.817D+00
 Coeff-En:   0.000D+00 0.000D+00 0.311D+00 0.000D+00 0.689D+00
 Coeff:     -0.907D-02 0.300D-01 0.273D+00-0.979D-01 0.804D+00
 Gap=     0.226 Goal=   None    Shift=    0.000
 RMSDP=8.23D-04 MaxDP=1.83D-02 DE=-9.76D-02 OVMax= 3.25D-02

 Cycle   6  Pass 0  IDiag  1:
 E= -232.466441449335     Delta-E=       -0.007204757645 Rises=F Damp=F
 DIIS: error= 2.54D-04 at cycle   6 NSaved=   6.
 NSaved= 6 IEnMin= 6 EnMin= -232.466441449335     IErMin= 6 ErrMin= 2.54D-04
 ErrMax= 2.54D-04  0.00D+00 EMaxC= 1.00D-01 BMatC= 7.74D-06 BMatP= 8.72D-03
 IDIUse=3 WtCom= 9.97D-01 WtEn= 2.54D-03
 Coeff-Com: -0.390D-02 0.850D-02 0.799D-01-0.377D-01 0.281D+00 0.672D+00
 Coeff-En:   0.000D+00 0.000D+00 0.000D+00 0.000D+00 0.000D+00 0.100D+01
 Coeff:     -0.389D-02 0.848D-02 0.797D-01-0.376D-01 0.281D+00 0.673D+00
 Gap=     0.225 Goal=   None    Shift=    0.000
 RMSDP=2.89D-05 MaxDP=6.08D-04 DE=-7.20D-03 OVMax= 9.53D-04

 Cycle   7  Pass 0  IDiag  1:
 E= -232.466447431897     Delta-E=       -0.000005982562 Rises=F Damp=F
 DIIS: error= 5.22D-05 at cycle   7 NSaved=   7.
 NSaved= 7 IEnMin= 7 EnMin= -232.466447431897     IErMin= 7 ErrMin= 5.22D-05
 ErrMax= 5.22D-05  0.00D+00 EMaxC= 1.00D-01 BMatC= 4.46D-07 BMatP= 7.74D-06
 IDIUse=1 WtCom= 1.00D+00 WtEn= 0.00D+00
 Coeff-Com: -0.891D-03 0.113D-02 0.211D-01-0.968D-02 0.752D-01 0.305D+00
 Coeff-Com:  0.608D+00
 Coeff:     -0.891D-03 0.113D-02 0.211D-01-0.968D-02 0.752D-01 0.305D+00
 Coeff:      0.608D+00
 Gap=     0.225 Goal=   None    Shift=    0.000
 RMSDP=8.53D-06 MaxDP=1.58D-04 DE=-5.98D-06 OVMax= 1.51D-04

 Initial convergence to 1.0D-05 achieved.  Increase integral accuracy.
 Cycle   8  Pass 1  IDiag  1:
 E= -232.466428120047     Delta-E=        0.000019311850 Rises=F Damp=F
 DIIS: error= 9.74D-06 at cycle   1 NSaved=   1.
 NSaved= 1 IEnMin= 1 EnMin= -232.466428120047     IErMin= 1 ErrMin= 9.74D-06
 ErrMax= 9.74D-06  0.00D+00 EMaxC= 1.00D-01 BMatC= 1.89D-08 BMatP= 1.89D-08
 IDIUse=1 WtCom= 1.00D+00 WtEn= 0.00D+00
 Coeff-Com:  0.100D+01
 Coeff:      0.100D+01
 Gap=     0.225 Goal=   None    Shift=    0.000
 RMSDP=8.53D-06 MaxDP=1.58D-04 DE= 1.93D-05 OVMax= 1.04D-04

 Cycle   9  Pass 1  IDiag  1:
 E= -232.466428102842     Delta-E=        0.000000017204 Rises=F Damp=F
 DIIS: error= 2.50D-05 at cycle   2 NSaved=   2.
 NSaved= 2 IEnMin= 1 EnMin= -232.466428120047     IErMin= 1 ErrMin= 9.74D-06
 ErrMax= 2.50D-05  0.00D+00 EMaxC= 1.00D-01 BMatC= 4.84D-08 BMatP= 1.89D-08
 IDIUse=1 WtCom= 1.00D+00 WtEn= 0.00D+00
 Coeff-Com:  0.634D+00 0.366D+00
 Coeff:      0.634D+00 0.366D+00
 Gap=     0.225 Goal=   None    Shift=    0.000
 RMSDP=2.12D-06 MaxDP=5.63D-05 DE= 1.72D-08 OVMax= 9.34D-05

 Cycle  10  Pass 1  IDiag  1:
 E= -232.466428139114     Delta-E=       -0.000000036272 Rises=F Damp=F
 DIIS: error= 5.25D-06 at cycle   3 NSaved=   3.
 NSaved= 3 IEnMin= 3 EnMin= -232.466428139114     IErMin= 3 ErrMin= 5.25D-06
 ErrMax= 5.25D-06  0.00D+00 EMaxC= 1.00D-01 BMatC= 2.14D-09 BMatP= 1.89D-08
 IDIUse=1 WtCom= 1.00D+00 WtEn= 0.00D+00
 Coeff-Com:  0.721D-01 0.176D+00 0.752D+00
 Coeff:      0.721D-01 0.176D+00 0.752D+00
 Gap=     0.225 Goal=   None    Shift=    0.000
 RMSDP=6.40D-07 MaxDP=1.12D-05 DE=-3.63D-08 OVMax= 1.87D-05

 Cycle  11  Pass 1  IDiag  1:
 E= -232.466428140540     Delta-E=       -0.000000001426 Rises=F Damp=F
 DIIS: error= 1.04D-06 at cycle   4 NSaved=   4.
 NSaved= 4 IEnMin= 4 EnMin= -232.466428140540     IErMin= 4 ErrMin= 1.04D-06
 ErrMax= 1.04D-06  0.00D+00 EMaxC= 1.00D-01 BMatC= 2.60D-10 BMatP= 2.14D-09
 IDIUse=1 WtCom= 1.00D+00 WtEn= 0.00D+00
 Coeff-Com: -0.103D-01 0.641D-01 0.386D+00 0.560D+00
 Coeff:     -0.103D-01 0.641D-01 0.386D+00 0.560D+00
 Gap=     0.225 Goal=   None    Shift=    0.000
 RMSDP=2.12D-07 MaxDP=3.61D-06 DE=-1.43D-09 OVMax= 3.76D-06

 Cycle  12  Pass 1  IDiag  1:
 E= -232.466428140775     Delta-E=       -0.000000000235 Rises=F Damp=F
 DIIS: error= 1.22D-07 at cycle   5 NSaved=   5.
 NSaved= 5 IEnMin= 5 EnMin= -232.466428140775     IErMin= 5 ErrMin= 1.22D-07
 ErrMax= 1.22D-07  0.00D+00 EMaxC= 1.00D-01 BMatC= 4.29D-12 BMatP= 2.60D-10
 IDIUse=1 WtCom= 1.00D+00 WtEn= 0.00D+00
 Coeff-Com: -0.636D-02 0.169D-01 0.102D+00 0.197D+00 0.691D+00
 Coeff:     -0.636D-02 0.169D-01 0.102D+00 0.197D+00 0.691D+00
 Gap=     0.225 Goal=   None    Shift=    0.000
 RMSDP=2.75D-08 MaxDP=3.78D-07 DE=-2.35D-10 OVMax= 5.29D-07

 Cycle  13  Pass 1  IDiag  1:
 E= -232.466428140788     Delta-E=       -0.000000000013 Rises=F Damp=F
 DIIS: error= 4.26D-08 at cycle   6 NSaved=   6.
 NSaved= 6 IEnMin= 6 EnMin= -232.466428140788     IErMin= 6 ErrMin= 4.26D-08
 ErrMax= 4.26D-08  0.00D+00 EMaxC= 1.00D-01 BMatC= 2.62D-13 BMatP= 4.29D-12
 IDIUse=1 WtCom= 1.00D+00 WtEn= 0.00D+00
 Coeff-Com: -0.184D-02 0.380D-02 0.183D-01 0.467D-01 0.242D+00 0.692D+00
 Coeff:     -0.184D-02 0.380D-02 0.183D-01 0.467D-01 0.242D+00 0.692D+00
 Gap=     0.225 Goal=   None    Shift=    0.000
 RMSDP=9.31D-09 MaxDP=1.50D-07 DE=-1.34D-11 OVMax= 2.34D-07

 SCF Done:  E(RB3LYP) =  -232.466428141     A.U. after   13 cycles
            NFock= 13  Conv=0.93D-08     -V/T= 2.0093
 KE= 2.303140848991D+02 PE=-8.934114480386D+02 EE= 2.542893982178D+02
 Leave Link  502 at Thu Mar 19 18:32:25 2026, MaxMem=   536870912 cpu:        10.0
 (Enter C:\G09W\l601.exe)
 Copying SCF densities to generalized density rwf, IOpCl= 0 IROHF=0.

 **********************************************************************

            Population analysis using the SCF density.

 **********************************************************************

 Orbital symmetries:
       Occupied  (A) (A) (A) (A) (A) (A) (A) (A) (A) (A) (A) (A)
                 (A) (A) (A) (A) (A) (A) (A) (A)
       Virtual   (A) (A) (A) (A) (A) (A) (A) (A) (A) (A) (A) (A)
                 (A) (A) (A) (A) (A) (A) (A) (A) (A) (A) (A) (A)
                 (A) (A) (A) (A) (A) (A) (A) (A) (A) (A) (A) (A)
                 (A) (A) (A) (A) (A) (A) (A) (A) (A) (A) (A) (A)
                 (A) (A) (A) (A) (A) (A) (A) (A) (A) (A) (A) (A)
                 (A) (A) (A) (A) (A) (A) (A) (A) (A) (A) (A)
 The electronic state is 1-A.
 Alpha  occ. eigenvalues --  -19.13188 -10.27163 -10.19182 -10.19014 -10.18880
 Alpha  occ. eigenvalues --   -1.02451  -0.79430  -0.73547  -0.64637  -0.52902
 Alpha  occ. eigenvalues --   -0.47049  -0.46144  -0.44556  -0.41406  -0.40574
 Alpha  occ. eigenvalues --   -0.38830  -0.36801  -0.35044  -0.33765  -0.23908
 Alpha virt. eigenvalues --   -0.01369   0.08217   0.12144   0.13745   0.14691
 Alpha virt. eigenvalues --    0.16050   0.16228   0.18719   0.20046   0.21549
 Alpha virt. eigenvalues --    0.23668   0.30493   0.33570   0.49645   0.51268
 Alpha virt. eigenvalues --    0.53702   0.54960   0.57654   0.60635   0.65031
 Alpha virt. eigenvalues --    0.66517   0.68691   0.73584   0.76603   0.81544
 Alpha virt. eigenvalues --    0.82275   0.86392   0.87100   0.88009   0.89843
 Alpha virt. eigenvalues --    0.91533   0.92983   0.95733   0.98824   1.01811
 Alpha virt. eigenvalues --    1.04233   1.09973   1.20315   1.26833   1.40095
 Alpha virt. eigenvalues --    1.42553   1.52116   1.64033   1.69181   1.70818
 Alpha virt. eigenvalues --    1.79020   1.80600   1.85155   1.89365   1.92522
 Alpha virt. eigenvalues --    1.95724   2.00586   2.06231   2.12396   2.15243
 Alpha virt. eigenvalues --    2.24413   2.28123   2.31883   2.36485   2.38629
 Alpha virt. eigenvalues --    2.50247   2.60097   2.65513   2.71123   2.95321
 Alpha virt. eigenvalues --    2.97833   3.96933   4.09920   4.22584   4.38747
 Alpha virt. eigenvalues --    4.50666
          Condensed to atoms (all electrons):
               1          2          3          4          5          6
     1  C    5.064444   0.354279  -0.035700   0.002126  -0.001784   0.377095
     2  C    0.354279   5.260195   0.328245  -0.141306  -0.080358  -0.027680
     3  C   -0.035700   0.328245   4.480191   0.311626   0.587644   0.003534
     4  C    0.002126  -0.141306   0.311626   5.377388  -0.085735  -0.000260
     5  O   -0.001784  -0.080358   0.587644  -0.085735   8.004866  -0.000060
     6  H    0.377095  -0.027680   0.003534  -0.000260  -0.000060   0.554713
     7  H    0.380156  -0.041928  -0.001288   0.000646   0.002371  -0.028675
     8  H    0.378358  -0.038332  -0.005539   0.002828  -0.000016  -0.028897
     9  H   -0.034102   0.343687  -0.025918   0.002170   0.003215  -0.003945
    10  H   -0.029079   0.353165  -0.024596   0.006911   0.004015  -0.004863
    11  H    0.000774   0.002468  -0.023101   0.355248   0.000856   0.000009
    12  H   -0.000024   0.006275  -0.019569   0.350124   0.005529   0.000003
    13  H   -0.000359   0.003372  -0.020353   0.345676   0.002182  -0.000005
               7          8          9         10         11         12
     1  C    0.380156   0.378358  -0.034102  -0.029079   0.000774  -0.000024
     2  C   -0.041928  -0.038332   0.343687   0.353165   0.002468   0.006275
     3  C   -0.001288  -0.005539  -0.025918  -0.024596  -0.023101  -0.019569
     4  C    0.000646   0.002828   0.002170   0.006911   0.355248   0.350124
     5  O    0.002371  -0.000016   0.003215   0.004015   0.000856   0.005529
     6  H   -0.028675  -0.028897  -0.003945  -0.004863   0.000009   0.000003
     7  H    0.551546  -0.031845   0.005626  -0.003306  -0.000083  -0.000030
     8  H   -0.031845   0.572180  -0.004832   0.005095   0.002078  -0.000084
     9  H    0.005626  -0.004832   0.601920  -0.032295  -0.000388  -0.000166
    10  H   -0.003306   0.005095  -0.032295   0.558882  -0.000046  -0.000198
    11  H   -0.000083   0.002078  -0.000388  -0.000046   0.532436  -0.020935
    12  H   -0.000030  -0.000084  -0.000166  -0.000198  -0.020935   0.522102
    13  H    0.000014   0.000110   0.001842  -0.000178  -0.023947  -0.023984
              13
     1  C   -0.000359
     2  C    0.003372
     3  C   -0.020353
     4  C    0.345676
     5  O    0.002182
     6  H   -0.000005
     7  H    0.000014
     8  H    0.000110
     9  H    0.001842
    10  H   -0.000178
    11  H   -0.023947
    12  H   -0.023984
    13  H    0.552017
 Mulliken charges:
               1
     1  C   -0.456184
     2  C   -0.322081
     3  C    0.444825
     4  C   -0.527442
     5  O   -0.442725
     6  H    0.159031
     7  H    0.166796
     8  H    0.148896
     9  H    0.143188
    10  H    0.166494
    11  H    0.174631
    12  H    0.180960
    13  H    0.163612
 Sum of Mulliken charges =   0.00000
 Mulliken charges with hydrogens summed into heavy atoms:
               1
     1  C    0.018538
     2  C   -0.012399
     3  C    0.444825
     4  C   -0.008239
     5  O   -0.442725
 Electronic spatial extent (au):  <R**2>=            470.5690
 Charge=              0.0000 electrons
 Dipole moment (field-independent basis, Debye):
    X=             -1.4662    Y=              2.3704    Z=              0.7045  Tot=              2.8749
 Quadrupole moment (field-independent basis, Debye-Ang):
   XX=            -31.9470   YY=            -33.8344   ZZ=            -30.5600
   XY=              3.3498   XZ=              0.6734   YZ=             -0.8460
 Traceless Quadrupole moment (field-independent basis, Debye-Ang):
   XX=              0.1668   YY=             -1.7206   ZZ=              1.5538
   XY=              3.3498   XZ=              0.6734   YZ=             -0.8460
 Octapole moment (field-independent basis, Debye-Ang**2):
  XXX=              1.9716  YYY=             -0.1609  ZZZ=             -0.5051  XYY=             -2.4380
  XXY=              1.7075  XXZ=              1.1251  XZZ=              1.4199  YZZ=             -0.8331
  YYZ=              0.6825  XYZ=             -0.8557
 Hexadecapole moment (field-independent basis, Debye-Ang**3):
 XXXX=           -350.5920 YYYY=           -174.9967 ZZZZ=            -80.2326 XXXY=              1.9144
 XXXZ=             -3.5430 YYYX=             -0.6991 YYYZ=             -1.5434 ZZZX=             -0.3871
 ZZZY=              2.8846 XXYY=            -93.0187 XXZZ=            -74.1313 YYZZ=            -39.4209
 XXYZ=             -0.7657 YYXZ=              0.9429 ZZXY=             -0.2734
 N-N= 1.763415367810D+02 E-N=-8.934114521007D+02  KE= 2.303140848991D+02
 No NMR shielding tensors so no spin-rotation constants.
 Leave Link  601 at Thu Mar 19 18:32:26 2026, MaxMem=   536870912 cpu:         0.0
 (Enter C:\G09W\l701.exe)
 Compute integral first derivatives.
 ... and contract with generalized density number  0.
 Leave Link  701 at Thu Mar 19 18:32:26 2026, MaxMem=   536870912 cpu:         0.0
 (Enter C:\G09W\l702.exe)
 L702 exits ... SP integral derivatives will be done elsewhere.
 Leave Link  702 at Thu Mar 19 18:32:27 2026, MaxMem=   536870912 cpu:         0.0
 (Enter C:\G09W\l703.exe)
 Compute integral first derivatives, UseDBF=F ICtDFT=           0.
 Integral derivatives from FoFJK, PRISM(SPDF).
 Calling FoFJK, ICntrl=      2127 FMM=F ISym2X=0 I1Cent= 0 IOpClX= 0 NMat=1 NMatS=1 NMatT=0.
 FoFJK:  IHMeth= 1 ICntrl=    2127 DoSepK=F KAlg= 0 I1Cent=   0 FoldK=F
 IRaf=         0 NMat=   1 IRICut=       1 DoRegI=T DoRafI=F ISym2E= 0.
 FoFCou: FMM=F IPFlag=           0 FMFlag=      100000 FMFlg1=         800
         NFxFlg=           0 DoJE=F BraDBF=F KetDBF=F FulRan=T
         wScrn=  0.000000 ICntrl=    2127 IOpCl=  0 I1Cent=           0 NGrid=           0
         NMat0=    1 NMatS0=      1 NMatT0=    0 NMatD0=    1 NMtDS0=    0 NMtDT0=    0
 Symmetry not used in FoFCou.
 Leave Link  703 at Thu Mar 19 18:32:28 2026, MaxMem=   536870912 cpu:         1.0
 (Enter C:\G09W\l716.exe)
 Dipole        =-5.76842850D-01 9.32587642D-01 2.77186695D-01
 ***** Axes restored to original set *****
 -------------------------------------------------------------------
 Center     Atomic                   Forces (Hartrees/Bohr)
 Number     Number              X              Y              Z
 -------------------------------------------------------------------
      1        6           0.006720975   -0.000117189   -0.008645982
      2        6          -0.003964116   -0.002837981    0.011955025
      3        6          -0.000583116    0.020490661    0.019494658
      4        6          -0.007212725    0.003749016    0.003687484
      5        8           0.000966393   -0.014719182   -0.011925014
      6        1           0.000940131    0.000238573   -0.001197283
      7        1           0.000755095   -0.000059055    0.000682934
      8        1           0.001228202   -0.000577565   -0.001633025
      9        1           0.000608744   -0.002748793   -0.002490157
     10        1          -0.000846003    0.001978232   -0.000208868
     11        1          -0.000642432   -0.003243351   -0.003990055
     12        1           0.001645404    0.000790902   -0.000747950
     13        1           0.000383446   -0.002944268   -0.004981769
 -------------------------------------------------------------------
 Cartesian Forces:  Max     0.020490661 RMS     0.006439960
 Leave Link  716 at Thu Mar 19 18:32:29 2026, MaxMem=   536870912 cpu:         0.0
 (Enter C:\G09W\l103.exe)

 GradGradGradGradGradGradGradGradGradGradGradGradGradGradGradGradGradGrad
 Berny optimization.
 FormGI is forming the generalized inverse of G from B-inverse, IUseBI=4.
 Internal  Forces:  Max     0.018959446 RMS     0.003891370
 Search for a local minimum.
 Step number   1 out of a maximum of   64
 All quantities printed in internal units (Hartrees-Bohrs-Radians)
 RMS Force = .38914D-02 SwitMx=.10000D-02 MixMth= 1
 Mixed Optimization -- RFO/linear search
 Second derivative matrix not updated -- first step.
 ITU=  0
     Eigenvalues ---    0.00563   0.00593   0.00640   0.00684   0.04311
     Eigenvalues ---    0.05463   0.05645   0.05706   0.07386   0.07498
     Eigenvalues ---    0.09255   0.12712   0.16000   0.16000   0.16000
     Eigenvalues ---    0.16000   0.16000   0.16000   0.21922   0.24992
     Eigenvalues ---    0.25000   0.30816   0.31044   0.31735   0.34163
     Eigenvalues ---    0.34237   0.34252   0.34282   0.34321   0.34390
     Eigenvalues ---    0.34486   0.34561   0.90678
 RFO step:  Lambda=-2.38237614D-03 EMin= 5.62520681D-03
 Linear search not attempted -- first point.
 Iteration  1 RMS(Cart)=  0.02598053 RMS(Int)=  0.00026033
 Iteration  2 RMS(Cart)=  0.00029401 RMS(Int)=  0.00006577
 Iteration  3 RMS(Cart)=  0.00000007 RMS(Int)=  0.00006577
 ITry= 1 IFail=0 DXMaxC= 7.89D-02 DCOld= 1.00D+10 DXMaxT= 3.00D-01 DXLimC= 3.00D+00 Rises=F
 Variable       Old X    -DE/DX   Delta X   Delta X   Delta X     New X
                                 (Linear)    (Quad)   (Total)
    R1        2.86365   0.01417   0.00000   0.04562   0.04562   2.90927
    R2        2.06792   0.00046   0.00000   0.00134   0.00134   2.06926
    R3        2.06932   0.00028   0.00000   0.00082   0.00082   2.07013
    R4        2.06856   0.00105   0.00000   0.00305   0.00305   2.07161
    R5        2.85929   0.00675   0.00000   0.02159   0.02159   2.88087
    R6        2.06907   0.00251   0.00000   0.00727   0.00727   2.07634
    R7        2.07056  -0.00047   0.00000  -0.00138  -0.00138   2.06918
    R8        2.84631   0.00851   0.00000   0.02661   0.02661   2.87292
    R9        2.32622  -0.01896   0.00000  -0.02085  -0.02085   2.30537
   R10        2.06393   0.00280   0.00000   0.00803   0.00803   2.07196
   R11        2.06676  -0.00080   0.00000  -0.00230  -0.00230   2.06446
   R12        2.06518   0.00235   0.00000   0.00677   0.00677   2.07195
    A1        1.92662   0.00154   0.00000   0.00742   0.00739   1.93401
    A2        1.93749  -0.00081   0.00000  -0.00518  -0.00518   1.93230
    A3        1.94191   0.00223   0.00000   0.01598   0.01593   1.95785
    A4        1.89050  -0.00090   0.00000  -0.00992  -0.00991   1.88059
    A5        1.88590  -0.00192   0.00000  -0.01141  -0.01148   1.87442
    A6        1.87951  -0.00028   0.00000   0.00215   0.00214   1.88164
    A7        1.94178   0.00366   0.00000   0.01508   0.01512   1.95690
    A8        1.93770  -0.00337   0.00000  -0.02257  -0.02261   1.91510
    A9        1.92162   0.00002   0.00000   0.00089   0.00092   1.92254
   A10        1.90209   0.00068   0.00000   0.01124   0.01135   1.91344
   A11        1.88992  -0.00256   0.00000  -0.01685  -0.01682   1.87310
   A12        1.86862   0.00151   0.00000   0.01223   0.01224   1.88086
   A13        2.04800   0.00081   0.00000   0.00309   0.00303   2.05103
   A14        2.11738  -0.00110   0.00000  -0.00448  -0.00454   2.11284
   A15        2.11754   0.00028   0.00000   0.00096   0.00090   2.11844
   A16        1.91794   0.00262   0.00000   0.01007   0.01008   1.92802
   A17        1.91229  -0.00088   0.00000   0.00113   0.00098   1.91327
   A18        1.91449   0.00366   0.00000   0.02200   0.02188   1.93637
   A19        1.90174  -0.00072   0.00000  -0.00340  -0.00343   1.89831
   A20        1.92393  -0.00559   0.00000  -0.04726  -0.04722   1.87671
   A21        1.89320   0.00086   0.00000   0.01751   0.01724   1.91044
    D1        3.08452  -0.00081   0.00000  -0.00383  -0.00380   3.08072
    D2       -1.07705   0.00024   0.00000   0.00528   0.00522  -1.07183
    D3        0.98916   0.00002   0.00000   0.00693   0.00691   0.99607
    D4        0.98793  -0.00016   0.00000   0.00710   0.00716   0.99508
    D5        3.10955   0.00089   0.00000   0.01621   0.01617   3.12572
    D6       -1.10743   0.00067   0.00000   0.01786   0.01787  -1.08956
    D7       -1.10497  -0.00075   0.00000  -0.00280  -0.00274  -1.10771
    D8        1.01665   0.00031   0.00000   0.00631   0.00628   1.02293
    D9        3.08286   0.00008   0.00000   0.00796   0.00798   3.09084
   D10        1.34962  -0.00072   0.00000  -0.01040  -0.01031   1.33931
   D11       -1.76747  -0.00056   0.00000   0.00931   0.00936  -1.75811
   D12       -0.79262   0.00065   0.00000   0.00039   0.00035  -0.79227
   D13        2.37346   0.00082   0.00000   0.02010   0.02002   2.39349
   D14       -2.81954  -0.00010   0.00000  -0.01095  -0.01095  -2.83049
   D15        0.34655   0.00006   0.00000   0.00875   0.00873   0.35527
   D16       -1.18228   0.00134   0.00000   0.04644   0.04648  -1.13579
   D17        3.01192   0.00115   0.00000   0.04373   0.04384   3.05576
   D18        0.93549  -0.00157   0.00000   0.00835   0.00824   0.94373
   D19        1.93482   0.00115   0.00000   0.02665   0.02666   1.96148
   D20       -0.15417   0.00097   0.00000   0.02394   0.02402  -0.13015
   D21       -2.23060  -0.00176   0.00000  -0.01144  -0.01158  -2.24218
         Item               Value     Threshold  Converged?
 Maximum Force            0.018959     0.000450     NO 
 RMS     Force            0.003891     0.000300     NO 
 Maximum Displacement     0.078916     0.001800     NO 
 RMS     Displacement     0.026030     0.001200     NO 
 Predicted change in Energy=-1.211312D-03
 Lowest energy point so far.  Saving SCF results.
 GradGradGradGradGradGradGradGradGradGradGradGradGradGradGradGradGradGrad

 Leave Link  103 at Thu Mar 19 18:32:29 2026, MaxMem=   536870912 cpu:         0.0
 (Enter C:\G09W\l202.exe)
                          Input orientation:                          
 ---------------------------------------------------------------------
 Center     Atomic      Atomic             Coordinates (Angstroms)
 Number     Number       Type             X           Y           Z
 ---------------------------------------------------------------------
      1          6           0        1.567634   -0.254816   -0.410335
      2          6           0        0.516867   -0.511116    0.685254
      3          6           0       -0.609385    0.515785    0.652034
      4          6           0       -1.667205    0.363327   -0.429186
      5          8           0       -0.631975    1.450669    1.435458
      6          1           0        2.396435   -0.965743   -0.328420
      7          1           0        1.983365    0.754658   -0.319900
      8          1           0        1.147815   -0.355520   -1.417993
      9          1           0        0.099304   -1.520843    0.569706
     10          1           0        0.981840   -0.453100    1.674892
     11          1           0       -1.224794    0.509434   -1.421706
     12          1           0       -2.452762    1.108016   -0.281486
     13          1           0       -2.107139   -0.640753   -0.408318
 ---------------------------------------------------------------------
                    Distance matrix (angstroms):
                    1          2          3          4          5
     1  C    0.000000
     2  C    1.539517   0.000000
     3  C    2.542019   1.524491   0.000000
     4  C    3.293424   2.603229   1.520284   0.000000
     5  O    3.339747   2.394002   1.219947   2.393932   0.000000
     6  H    1.095006   2.183344   3.491585   4.276652   4.256944
     7  H    1.095468   2.182461   2.779221   3.673112   3.225789
     8  H    1.096250   2.201353   2.851655   3.069009   3.817349
     9  H    2.172394   1.098753   2.157979   2.769195   3.180280
    10  H    2.175004   1.094965   2.125317   3.480106   2.507202
    11  H    3.066692   2.917908   2.163138   1.096435   3.066063
    12  H    4.247058   3.517795   2.149474   1.092464   2.525980
    13  H    3.694983   2.845718   2.169146   1.096428   3.154309
                    6          7          8          9         10
     6  H    0.000000
     7  H    1.769316   0.000000
     8  H    1.765955   1.771002   0.000000
     9  H    2.528156   3.085286   2.531462   0.000000
    10  H    2.505422   2.537898   3.098872   1.772112   0.000000
    11  H    4.060138   3.400941   2.525358   3.137034   3.922324
    12  H    5.274220   4.450345   4.049413   3.761446   4.249822
    13  H    4.515991   4.322871   3.419872   2.568945   3.730518
                   11         12         13
    11  H    0.000000
    12  H    1.779412   0.000000
    13  H    1.768733   1.787103   0.000000
 Stoichiometry    C4H8O
 Framework group  C1[X(C4H8O)]
 Deg. of freedom    33
 Full point group                 C1      NOp   1
 RotChk:  IX=0 Diff= 1.49D-02
 Largest Abelian subgroup         C1      NOp   1
 Largest concise Abelian subgroup C1      NOp   1
                         Standard orientation:                         
 ---------------------------------------------------------------------
 Center     Atomic      Atomic             Coordinates (Angstroms)
 Number     Number       Type             X           Y           Z
 ---------------------------------------------------------------------
      1          6           0       -1.865137    0.231165   -0.403276
      2          6           0       -0.836964   -0.235577    0.643207
      3          6           0        0.585958   -0.221017    0.096254
      4          6           0        1.280772    1.126374   -0.017920
      5          8           0        1.126480   -1.248264   -0.279072
      6          1           0       -2.883838    0.153904   -0.009175
      7          1           0       -1.808175   -0.387823   -1.305307
      8          1           0       -1.707420    1.274127   -0.701804
      9          1           0       -0.896799    0.405520    1.533529
     10          1           0       -1.055746   -1.262056    0.955334
     11          1           0        0.770240    1.759955   -0.752837
     12          1           0        2.314894    0.979907   -0.338257
     13          1           0        1.267228    1.656910    0.941508
 ---------------------------------------------------------------------
 Rotational constants (GHZ):      7.5161906      3.7761025      2.9653051
 Leave Link  202 at Thu Mar 19 18:32:29 2026, MaxMem=   536870912 cpu:         0.0
 (Enter C:\G09W\l301.exe)
 Standard basis: 6-31G(d) (6D, 7F)
 Ernie: Thresh=  0.10000D-02 Tol=  0.10000D-05 Strict=F.
 There are    91 symmetry adapted cartesian basis functions of A   symmetry.
 There are    91 symmetry adapted basis functions of A   symmetry.
    91 basis functions,   172 primitive gaussians,    91 cartesian basis functions
    20 alpha electrons       20 beta electrons
       nuclear repulsion energy       175.3469292045 Hartrees.
 IExCor=  402 DFT=T Ex+Corr=B3LYP ExCW=0 ScaHFX=  0.200000
 ScaDFX=  0.800000  0.720000  1.000000  0.810000 ScalE2=  1.000000  1.000000
 IRadAn=      0 IRanWt=     -1 IRanGd=            0 ICorTp=0 IEmpDi=  4
 NAtoms=   13 NActive=   13 NUniq=   13 SFac= 1.00D+00 NAtFMM=   60 NAOKFM=F Big=F
 Integral buffers will be    131072 words long.
 Raffenetti 2 integral format.
 Two-electron integral symmetry is turned on.
 Leave Link  301 at Thu Mar 19 18:32:30 2026, MaxMem=   536870912 cpu:         0.0
 (Enter C:\G09W\l302.exe)
 NPDir=0 NMtPBC=     1 NCelOv=     1 NCel=       1 NClECP=     1 NCelD=      1
         NCelK=      1 NCelE2=     1 NClLst=     1 CellRange=     0.0.
 One-electron integrals computed using PRISM.
 NBasis=    91 RedAO= T EigKep=  4.53D-03  NBF=    91
 NBsUse=    91 1.00D-06 EigRej= -1.00D+00 NBFU=    91
 Precomputing XC quadrature grid using
 IXCGrd= 4 IRadAn=           0 IRanWt=          -1 IRanGd=           0 AccXCQ= 0.00D+00.
 Generated NRdTot=       0 NPtTot=           0 NUsed=           0 NTot=          32
 NSgBfM=    91    91    91    91    91 MxSgAt=    13 MxSgA2=    13.
 Leave Link  302 at Thu Mar 19 18:32:31 2026, MaxMem=   536870912 cpu:         0.0
 (Enter C:\G09W\l303.exe)
 DipDrv:  MaxL=1.
 Leave Link  303 at Thu Mar 19 18:32:31 2026, MaxMem=   536870912 cpu:         0.0
 (Enter C:\G09W\l401.exe)
 Initial guess from the checkpoint file:  "MEK_rdkit.chk"
 B after Tr=     0.000000    0.000000    0.000000
         Rot=    0.999992   -0.002525   -0.002300    0.002237 Ang=  -0.47 deg.
 Guess basis will be translated and rotated to current coordinates.
 JPrj=2 DoOrth=T DoCkMO=T.
 Generating alternative initial guess.
 ExpMin= 1.61D-01 ExpMax= 5.48D+03 ExpMxC= 8.25D+02 IAcc=1 IRadAn=         1 AccDes= 0.00D+00
 Harris functional with IExCor=  402 and IRadAn=       1 diagonalized for initial guess.
 HarFok:  IExCor=  402 AccDes= 0.00D+00 IRadAn=         1 IDoV= 1 UseB2=F ITyADJ=14
 ICtDFT=  3500011 ScaDFX=  1.000000  1.000000  1.000000  1.000000
 FoFCou: FMM=F IPFlag=           0 FMFlag=      100000 FMFlg1=           0
         NFxFlg=           0 DoJE=T BraDBF=F KetDBF=T FulRan=T
         wScrn=  0.000000 ICntrl=     500 IOpCl=  0 I1Cent=   200000004 NGrid=           0
         NMat0=    1 NMatS0=      1 NMatT0=    0 NMatD0=    1 NMtDS0=    0 NMtDT0=    0
 Petite list used in FoFCou.
 Harris En= -232.522266454435    
 Leave Link  401 at Thu Mar 19 18:32:32 2026, MaxMem=   536870912 cpu:         1.0
 (Enter C:\G09W\l502.exe)
 Closed shell SCF:
 Using DIIS extrapolation, IDIIS=  1040.
 Integral symmetry usage will be decided dynamically.
 Keep R1 ints in memory in canonical form, NReq=9719015.
 IVT=       44638 IEndB=       44638 NGot=   536870912 MDV=   528062884
 LenX=   528062884 LenY=   528054162
 Requested convergence on RMS density matrix=1.00D-08 within 128 cycles.
 Requested convergence on MAX density matrix=1.00D-06.
 Requested convergence on             energy=1.00D-06.
 No special actions if energy rises.
 FoFCou: FMM=F IPFlag=           0 FMFlag=           0 FMFlg1=           0
         NFxFlg=           0 DoJE=F BraDBF=F KetDBF=F FulRan=T
         wScrn=  0.000000 ICntrl=     600 IOpCl=  0 I1Cent=           0 NGrid=           0
         NMat0=    1 NMatS0=   4186 NMatT0=    0 NMatD0=    1 NMtDS0=    0 NMtDT0=    0
 Symmetry not used in FoFCou.
 Integral accuracy reduced to 1.0D-05 until final iterations.

 Cycle   1  Pass 0  IDiag  1:
 E= -232.467137546438    
 DIIS: error= 1.09D-03 at cycle   1 NSaved=   1.
 NSaved= 1 IEnMin= 1 EnMin= -232.467137546438     IErMin= 1 ErrMin= 1.09D-03
 ErrMax= 1.09D-03  0.00D+00 EMaxC= 1.00D-01 BMatC= 3.60D-04 BMatP= 3.60D-04
 IDIUse=3 WtCom= 9.89D-01 WtEn= 1.09D-02
 Coeff-Com:  0.100D+01
 Coeff-En:   0.100D+01
 Coeff:      0.100D+01
 Gap=     1.853 Goal=   None    Shift=    0.000
 GapD=    1.853 DampG=2.000 DampE=1.000 DampFc=2.0000 IDamp=-1.
 RMSDP=3.53D-04 MaxDP=3.68D-03              OVMax= 6.82D-03

 Cycle   2  Pass 0  IDiag  1:
 E= -232.467615788188     Delta-E=       -0.000478241750 Rises=F Damp=F
 DIIS: error= 1.05D-03 at cycle   2 NSaved=   2.
 NSaved= 2 IEnMin= 2 EnMin= -232.467615788188     IErMin= 2 ErrMin= 1.05D-03
 ErrMax= 1.05D-03  0.00D+00 EMaxC= 1.00D-01 BMatC= 1.25D-04 BMatP= 3.60D-04
 IDIUse=3 WtCom= 9.89D-01 WtEn= 1.05D-02
 Coeff-Com:  0.306D+00 0.694D+00
 Coeff-En:   0.000D+00 0.100D+01
 Coeff:      0.303D+00 0.697D+00
 Gap=     0.226 Goal=   None    Shift=    0.000
 RMSDP=2.06D-04 MaxDP=4.89D-03 DE=-4.78D-04 OVMax= 7.98D-03

 Cycle   3  Pass 0  IDiag  1:
 E= -232.467587624383     Delta-E=        0.000028163805 Rises=F Damp=F
 DIIS: error= 1.38D-03 at cycle   3 NSaved=   3.
 NSaved= 3 IEnMin= 2 EnMin= -232.467615788188     IErMin= 2 ErrMin= 1.05D-03
 ErrMax= 1.38D-03  0.00D+00 EMaxC= 1.00D-01 BMatC= 1.64D-04 BMatP= 1.25D-04
 IDIUse=3 WtCom= 2.12D-01 WtEn= 7.88D-01
 Coeff-Com: -0.120D-02 0.535D+00 0.466D+00
 Coeff-En:   0.000D+00 0.547D+00 0.453D+00
 Coeff:     -0.254D-03 0.545D+00 0.456D+00
 Gap=     0.228 Goal=   None    Shift=    0.000
 RMSDP=1.21D-04 MaxDP=2.99D-03 DE= 2.82D-05 OVMax= 5.01D-03

 Cycle   4  Pass 0  IDiag  1:
 E= -232.467714914012     Delta-E=       -0.000127289629 Rises=F Damp=F
 DIIS: error= 1.43D-04 at cycle   4 NSaved=   4.
 NSaved= 4 IEnMin= 4 EnMin= -232.467714914012     IErMin= 4 ErrMin= 1.43D-04
 ErrMax= 1.43D-04  0.00D+00 EMaxC= 1.00D-01 BMatC= 3.31D-06 BMatP= 1.25D-04
 IDIUse=3 WtCom= 9.99D-01 WtEn= 1.43D-03
 Coeff-Com: -0.178D-01 0.239D+00 0.232D+00 0.547D+00
 Coeff-En:   0.000D+00 0.000D+00 0.000D+00 0.100D+01
 Coeff:     -0.178D-01 0.238D+00 0.232D+00 0.548D+00
 Gap=     0.228 Goal=   None    Shift=    0.000
 RMSDP=1.77D-05 MaxDP=2.85D-04 DE=-1.27D-04 OVMax= 3.51D-04

 Cycle   5  Pass 0  IDiag  1:
 E= -232.467717706161     Delta-E=       -0.000002792149 Rises=F Damp=F
 DIIS: error= 2.83D-05 at cycle   5 NSaved=   5.
 NSaved= 5 IEnMin= 5 EnMin= -232.467717706161     IErMin= 5 ErrMin= 2.83D-05
 ErrMax= 2.83D-05  0.00D+00 EMaxC= 1.00D-01 BMatC= 1.40D-07 BMatP= 3.31D-06
 IDIUse=1 WtCom= 1.00D+00 WtEn= 0.00D+00
 Coeff-Com: -0.674D-02 0.531D-01 0.642D-01 0.215D+00 0.674D+00
 Coeff:     -0.674D-02 0.531D-01 0.642D-01 0.215D+00 0.674D+00
 Gap=     0.228 Goal=   None    Shift=    0.000
 RMSDP=5.09D-06 MaxDP=6.50D-05 DE=-2.79D-06 OVMax= 9.98D-05

 Initial convergence to 1.0D-05 achieved.  Increase integral accuracy.
 Cycle   6  Pass 1  IDiag  1:
 E= -232.467701317018     Delta-E=        0.000016389142 Rises=F Damp=F
 DIIS: error= 5.01D-06 at cycle   1 NSaved=   1.
 NSaved= 1 IEnMin= 1 EnMin= -232.467701317018     IErMin= 1 ErrMin= 5.01D-06
 ErrMax= 5.01D-06  0.00D+00 EMaxC= 1.00D-01 BMatC= 8.66D-09 BMatP= 8.66D-09
 IDIUse=1 WtCom= 1.00D+00 WtEn= 0.00D+00
 Coeff-Com:  0.100D+01
 Coeff:      0.100D+01
 Gap=     0.228 Goal=   None    Shift=    0.000
 RMSDP=5.09D-06 MaxDP=6.50D-05 DE= 1.64D-05 OVMax= 4.36D-05

 Cycle   7  Pass 1  IDiag  1:
 E= -232.467701325967     Delta-E=       -0.000000008949 Rises=F Damp=F
 DIIS: error= 3.66D-06 at cycle   2 NSaved=   2.
 NSaved= 2 IEnMin= 2 EnMin= -232.467701325967     IErMin= 2 ErrMin= 3.66D-06
 ErrMax= 3.66D-06  0.00D+00 EMaxC= 1.00D-01 BMatC= 3.36D-09 BMatP= 8.66D-09
 IDIUse=1 WtCom= 1.00D+00 WtEn= 0.00D+00
 Coeff-Com:  0.340D+00 0.660D+00
 Coeff:      0.340D+00 0.660D+00
 Gap=     0.228 Goal=   None    Shift=    0.000
 RMSDP=8.75D-07 MaxDP=1.41D-05 DE=-8.95D-09 OVMax= 2.11D-05

 Cycle   8  Pass 1  IDiag  1:
 E= -232.467701327725     Delta-E=       -0.000000001758 Rises=F Damp=F
 DIIS: error= 4.22D-06 at cycle   3 NSaved=   3.
 NSaved= 3 IEnMin= 3 EnMin= -232.467701327725     IErMin= 2 ErrMin= 3.66D-06
 ErrMax= 4.22D-06  0.00D+00 EMaxC= 1.00D-01 BMatC= 1.79D-09 BMatP= 3.36D-09
 IDIUse=1 WtCom= 1.00D+00 WtEn= 0.00D+00
 Coeff-Com:  0.226D-01 0.417D+00 0.560D+00
 Coeff:      0.226D-01 0.417D+00 0.560D+00
 Gap=     0.228 Goal=   None    Shift=    0.000
 RMSDP=4.71D-07 MaxDP=1.18D-05 DE=-1.76D-09 OVMax= 1.78D-05

 Cycle   9  Pass 1  IDiag  1:
 E= -232.467701328964     Delta-E=       -0.000000001239 Rises=F Damp=F
 DIIS: error= 2.21D-06 at cycle   4 NSaved=   4.
 NSaved= 4 IEnMin= 4 EnMin= -232.467701328964     IErMin= 4 ErrMin= 2.21D-06
 ErrMax= 2.21D-06  0.00D+00 EMaxC= 1.00D-01 BMatC= 3.57D-10 BMatP= 1.79D-09
 IDIUse=1 WtCom= 1.00D+00 WtEn= 0.00D+00
 Coeff-Com: -0.175D-01 0.219D+00 0.383D+00 0.416D+00
 Coeff:     -0.175D-01 0.219D+00 0.383D+00 0.416D+00
 Gap=     0.228 Goal=   None    Shift=    0.000
 RMSDP=1.95D-07 MaxDP=4.06D-06 DE=-1.24D-09 OVMax= 7.21D-06

 Cycle  10  Pass 1  IDiag  1:
 E= -232.467701329249     Delta-E=       -0.000000000286 Rises=F Damp=F
 DIIS: error= 1.26D-07 at cycle   5 NSaved=   5.
 NSaved= 5 IEnMin= 5 EnMin= -232.467701329249     IErMin= 5 ErrMin= 1.26D-07
 ErrMax= 1.26D-07  0.00D+00 EMaxC= 1.00D-01 BMatC= 2.77D-12 BMatP= 3.57D-10
 IDIUse=1 WtCom= 1.00D+00 WtEn= 0.00D+00
 Coeff-Com: -0.742D-02 0.493D-01 0.983D-01 0.135D+00 0.724D+00
 Coeff:     -0.742D-02 0.493D-01 0.983D-01 0.135D+00 0.724D+00
 Gap=     0.228 Goal=   None    Shift=    0.000
 RMSDP=2.87D-08 MaxDP=3.27D-07 DE=-2.86D-10 OVMax= 1.27D-06

 Cycle  11  Pass 1  IDiag  1:
 E= -232.467701329254     Delta-E=       -0.000000000005 Rises=F Damp=F
 DIIS: error= 3.96D-08 at cycle   6 NSaved=   6.
 NSaved= 6 IEnMin= 6 EnMin= -232.467701329254     IErMin= 6 ErrMin= 3.96D-08
 ErrMax= 3.96D-08  0.00D+00 EMaxC= 1.00D-01 BMatC= 2.78D-13 BMatP= 2.77D-12
 IDIUse=1 WtCom= 1.00D+00 WtEn= 0.00D+00
 Coeff-Com:  0.897D-04-0.104D-01-0.144D-01-0.115D-01 0.199D+00 0.837D+00
 Coeff:      0.897D-04-0.104D-01-0.144D-01-0.115D-01 0.199D+00 0.837D+00
 Gap=     0.228 Goal=   None    Shift=    0.000
 RMSDP=1.29D-08 MaxDP=1.63D-07 DE=-5.00D-12 OVMax= 6.73D-07

 Cycle  12  Pass 1  IDiag  1:
 E= -232.467701329253     Delta-E=        0.000000000002 Rises=F Damp=F
 DIIS: error= 1.41D-08 at cycle   7 NSaved=   7.
 NSaved= 7 IEnMin= 6 EnMin= -232.467701329254     IErMin= 7 ErrMin= 1.41D-08
 ErrMax= 1.41D-08  0.00D+00 EMaxC= 1.00D-01 BMatC= 4.47D-14 BMatP= 2.78D-13
 IDIUse=1 WtCom= 1.00D+00 WtEn= 0.00D+00
 Coeff-Com:  0.729D-03-0.916D-02-0.161D-01-0.173D-01 0.101D-01 0.341D+00
 Coeff-Com:  0.691D+00
 Coeff:      0.729D-03-0.916D-02-0.161D-01-0.173D-01 0.101D-01 0.341D+00
 Coeff:      0.691D+00
 Gap=     0.228 Goal=   None    Shift=    0.000
 RMSDP=4.09D-09 MaxDP=4.76D-08 DE= 1.82D-12 OVMax= 1.99D-07

 SCF Done:  E(RB3LYP) =  -232.467701329     A.U. after   12 cycles
            NFock= 12  Conv=0.41D-08     -V/T= 2.0096
 KE= 2.302480140031D+02 PE=-8.913688647280D+02 EE= 2.533062201911D+02
 Leave Link  502 at Thu Mar 19 18:32:41 2026, MaxMem=   536870912 cpu:         9.0
 (Enter C:\G09W\l701.exe)
 Compute integral first derivatives.
 ... and contract with generalized density number  0.
 Leave Link  701 at Thu Mar 19 18:32:41 2026, MaxMem=   536870912 cpu:         0.0
 (Enter C:\G09W\l702.exe)
 L702 exits ... SP integral derivatives will be done elsewhere.
 Leave Link  702 at Thu Mar 19 18:32:42 2026, MaxMem=   536870912 cpu:         0.0
 (Enter C:\G09W\l703.exe)
 Compute integral first derivatives, UseDBF=F ICtDFT=           0.
 Integral derivatives from FoFJK, PRISM(SPDF).
 Calling FoFJK, ICntrl=      2127 FMM=F ISym2X=0 I1Cent= 0 IOpClX= 0 NMat=1 NMatS=1 NMatT=0.
 FoFJK:  IHMeth= 1 ICntrl=    2127 DoSepK=F KAlg= 0 I1Cent=   0 FoldK=F
 IRaf=         0 NMat=   1 IRICut=       1 DoRegI=T DoRafI=F ISym2E= 0.
 FoFCou: FMM=F IPFlag=           0 FMFlag=      100000 FMFlg1=         800
         NFxFlg=           0 DoJE=F BraDBF=F KetDBF=F FulRan=T
         wScrn=  0.000000 ICntrl=    2127 IOpCl=  0 I1Cent=           0 NGrid=           0
         NMat0=    1 NMatS0=      1 NMatT0=    0 NMatD0=    1 NMtDS0=    0 NMtDT0=    0
 Symmetry not used in FoFCou.
 Leave Link  703 at Thu Mar 19 18:32:43 2026, MaxMem=   536870912 cpu:         1.0
 (Enter C:\G09W\l716.exe)
 Dipole        =-5.62232050D-01 9.17653071D-01 2.74847009D-01
 ***** Axes restored to original set *****
 -------------------------------------------------------------------
 Center     Atomic                   Forces (Hartrees/Bohr)
 Number     Number              X              Y              Z
 -------------------------------------------------------------------
      1        6           0.000818592    0.000914854   -0.001277554
      2        6          -0.000816427   -0.002356785    0.001452448
      3        6           0.001397132    0.005861274    0.001700108
      4        6          -0.002008538    0.000436483    0.001656143
      5        8          -0.000559205   -0.004102268   -0.002327614
      6        1          -0.000397886   -0.000346773    0.000623420
      7        1          -0.000016095    0.000012066    0.000301170
      8        1          -0.000532744   -0.000156740    0.000552634
      9        1           0.000389403    0.000175051   -0.000726350
     10        1           0.000324491    0.000709482   -0.000624088
     11        1           0.000477739   -0.000942134   -0.000557468
     12        1           0.000516166    0.000145937    0.000026975
     13        1           0.000407373   -0.000350446   -0.000799825
 -------------------------------------------------------------------
 Cartesian Forces:  Max     0.005861274 RMS     0.001484251
 Leave Link  716 at Thu Mar 19 18:32:44 2026, MaxMem=   536870912 cpu:         0.0
 (Enter C:\G09W\l103.exe)

 GradGradGradGradGradGradGradGradGradGradGradGradGradGradGradGradGradGrad
 Berny optimization.
 Using GEDIIS/GDIIS optimizer.
 FormGI is forming the generalized inverse of G from B-inverse, IUseBI=4.
 Internal  Forces:  Max     0.004628482 RMS     0.000755205
 Search for a local minimum.
 Step number   2 out of a maximum of   64
 All quantities printed in internal units (Hartrees-Bohrs-Radians)
 RMS Force = .75520D-03 SwitMx=.10000D-02 MixMth= 2
 Mixed Optimization -- En-DIIS/RFO-DIIS
 Update second derivatives using D2CorX and points    1    2
 DE= -1.27D-03 DEPred=-1.21D-03 R= 1.05D+00
 TightC=F SS=  1.41D+00  RLast= 1.27D-01 DXNew= 5.0454D-01 3.8054D-01
 Trust test= 1.05D+00 RLast= 1.27D-01 DXMaxT set to 3.81D-01
 ITU=  1  0
 Use linear search instead of GDIIS.
     Eigenvalues ---    0.00562   0.00593   0.00652   0.00686   0.04255
     Eigenvalues ---    0.05426   0.05530   0.05697   0.06908   0.07368
     Eigenvalues ---    0.09234   0.12745   0.15592   0.16000   0.16000
     Eigenvalues ---    0.16000   0.16000   0.16806   0.22172   0.24971
     Eigenvalues ---    0.25058   0.30855   0.31465   0.32063   0.34152
     Eigenvalues ---    0.34237   0.34266   0.34319   0.34360   0.34434
     Eigenvalues ---    0.34472   0.34623   0.84996
 RFO step:  Lambda=-2.74676084D-04 EMin= 5.61522792D-03
 Quartic linear search produced a step of  0.08498.
 Iteration  1 RMS(Cart)=  0.01995485 RMS(Int)=  0.00040935
 Iteration  2 RMS(Cart)=  0.00052976 RMS(Int)=  0.00025354
 Iteration  3 RMS(Cart)=  0.00000012 RMS(Int)=  0.00025354
 ITry= 1 IFail=0 DXMaxC= 5.56D-02 DCOld= 1.00D+10 DXMaxT= 3.81D-01 DXLimC= 3.00D+00 Rises=F
 Variable       Old X    -DE/DX   Delta X   Delta X   Delta X     New X
                                 (Linear)    (Quad)   (Total)
    R1        2.90927  -0.00016   0.00388   0.00089   0.00476   2.91403
    R2        2.06926  -0.00003   0.00011  -0.00005   0.00006   2.06932
    R3        2.07013   0.00003   0.00007   0.00012   0.00019   2.07033
    R4        2.07161  -0.00029   0.00026  -0.00082  -0.00056   2.07105
    R5        2.88087   0.00054   0.00183   0.00258   0.00441   2.88528
    R6        2.07634  -0.00023   0.00062  -0.00050   0.00012   2.07646
    R7        2.06918  -0.00039  -0.00012  -0.00128  -0.00140   2.06779
    R8        2.87292   0.00026   0.00226   0.00172   0.00398   2.87690
    R9        2.30537  -0.00463  -0.00177  -0.00619  -0.00796   2.29741
   R10        2.07196   0.00057   0.00068   0.00204   0.00273   2.07469
   R11        2.06446  -0.00027  -0.00020  -0.00091  -0.00111   2.06335
   R12        2.07195   0.00014   0.00058   0.00066   0.00123   2.07318
    A1        1.93401  -0.00099   0.00063  -0.00721  -0.00660   1.92741
    A2        1.93230   0.00003  -0.00044   0.00083   0.00039   1.93269
    A3        1.95785  -0.00079   0.00135  -0.00483  -0.00349   1.95436
    A4        1.88059   0.00050  -0.00084   0.00305   0.00221   1.88280
    A5        1.87442   0.00081  -0.00098   0.00369   0.00269   1.87711
    A6        1.88164   0.00054   0.00018   0.00515   0.00534   1.88698
    A7        1.95690  -0.00038   0.00128  -0.00304  -0.00176   1.95514
    A8        1.91510  -0.00038  -0.00192  -0.00483  -0.00675   1.90835
    A9        1.92254  -0.00030   0.00008  -0.00481  -0.00474   1.91780
   A10        1.91344   0.00047   0.00096   0.00476   0.00572   1.91916
   A11        1.87310   0.00019  -0.00143  -0.00014  -0.00159   1.87151
   A12        1.88086   0.00045   0.00104   0.00871   0.00974   1.89060
   A13        2.05103  -0.00055   0.00026  -0.00117  -0.00199   2.04904
   A14        2.11284   0.00036  -0.00039   0.00254   0.00108   2.11393
   A15        2.11844   0.00020   0.00008   0.00203   0.00103   2.11948
   A16        1.92802  -0.00029   0.00086  -0.00350  -0.00264   1.92537
   A17        1.91327  -0.00021   0.00008   0.00095   0.00100   1.91427
   A18        1.93637   0.00043   0.00186   0.00302   0.00485   1.94122
   A19        1.89831   0.00042  -0.00029   0.00381   0.00352   1.90183
   A20        1.87671  -0.00079  -0.00401  -0.01147  -0.01548   1.86122
   A21        1.91044   0.00045   0.00147   0.00713   0.00854   1.91898
    D1        3.08072   0.00001  -0.00032   0.00641   0.00609   3.08680
    D2       -1.07183   0.00008   0.00044   0.00701   0.00744  -1.06439
    D3        0.99607   0.00022   0.00059   0.01181   0.01239   1.00846
    D4        0.99508   0.00001   0.00061   0.00674   0.00735   1.00243
    D5        3.12572   0.00007   0.00137   0.00733   0.00871   3.13443
    D6       -1.08956   0.00022   0.00152   0.01214   0.01365  -1.07591
    D7       -1.10771  -0.00018  -0.00023   0.00287   0.00265  -1.10506
    D8        1.02293  -0.00011   0.00053   0.00346   0.00400   1.02694
    D9        3.09084   0.00003   0.00068   0.00827   0.00895   3.09979
   D10        1.33931   0.00028  -0.00088   0.04362   0.04274   1.38205
   D11       -1.75811  -0.00025   0.00080  -0.04295  -0.04215  -1.80026
   D12       -0.79227   0.00070   0.00003   0.04848   0.04851  -0.74376
   D13        2.39349   0.00016   0.00170  -0.03809  -0.03638   2.35711
   D14       -2.83049  -0.00019  -0.00093   0.03571   0.03477  -2.79572
   D15        0.35527  -0.00073   0.00074  -0.05086  -0.05012   0.30515
   D16       -1.13579   0.00025   0.00395  -0.01314  -0.00918  -1.14497
   D17        3.05576   0.00004   0.00373  -0.01627  -0.01251   3.04324
   D18        0.94373  -0.00065   0.00070  -0.02777  -0.02708   0.91665
   D19        1.96148   0.00080   0.00227   0.07374   0.07600   2.03748
   D20       -0.13015   0.00059   0.00204   0.07061   0.07266  -0.05749
   D21       -2.24218  -0.00011  -0.00098   0.05911   0.05809  -2.18409
         Item               Value     Threshold  Converged?
 Maximum Force            0.004628     0.000450     NO 
 RMS     Force            0.000755     0.000300     NO 
 Maximum Displacement     0.055603     0.001800     NO 
 RMS     Displacement     0.019854     0.001200     NO 
 Predicted change in Energy=-1.490151D-04
 Lowest energy point so far.  Saving SCF results.
 GradGradGradGradGradGradGradGradGradGradGradGradGradGradGradGradGradGrad

 Leave Link  103 at Thu Mar 19 18:32:44 2026, MaxMem=   536870912 cpu:         0.0
 (Enter C:\G09W\l202.exe)
                          Input orientation:                          
 ---------------------------------------------------------------------
 Center     Atomic      Atomic             Coordinates (Angstroms)
 Number     Number       Type             X           Y           Z
 ---------------------------------------------------------------------
      1          6           0        1.582185   -0.254337   -0.409486
      2          6           0        0.516856   -0.505071    0.676833
      3          6           0       -0.599141    0.536096    0.635364
      4          6           0       -1.678863    0.364038   -0.424008
      5          8           0       -0.644463    1.441188    1.445774
      6          1           0        2.396684   -0.980892   -0.321067
      7          1           0        2.012789    0.747785   -0.306504
      8          1           0        1.166973   -0.344666   -1.419712
      9          1           0        0.095647   -1.511735    0.547977
     10          1           0        0.976070   -0.448651    1.668432
     11          1           0       -1.251026    0.486210   -1.427683
     12          1           0       -2.460139    1.112640   -0.277724
     13          1           0       -2.113571   -0.642605   -0.388197
 ---------------------------------------------------------------------
                    Distance matrix (angstroms):
                    1          2          3          4          5
     1  C    0.000000
     2  C    1.542038   0.000000
     3  C    2.544539   1.526826   0.000000
     4  C    3.319192   2.605453   1.522390   0.000000
     5  O    3.357790   2.393294   1.215735   2.392973   0.000000
     6  H    1.095038   2.180817   3.491558   4.292962   4.270454
     7  H    1.095570   2.185043   2.784620   3.713404   3.257649
     8  H    1.095955   2.200883   2.849252   3.097172   3.831656
     9  H    2.169696   1.098815   2.164250   2.759016   3.173887
    10  H    2.173218   1.094225   2.125617   3.476700   2.499440
    11  H    3.100357   2.921820   2.164164   1.097878   3.088148
    12  H    4.269235   3.520038   2.151614   1.091876   2.524889
    13  H    3.716156   2.841188   2.174973   1.097080   3.140688
                    6          7          8          9         10
     6  H    0.000000
     7  H    1.770850   0.000000
     8  H    1.767482   1.774284   0.000000
     9  H    2.516308   3.083991   2.526181   0.000000
    10  H    2.501906   2.531130   3.095786   1.777839   0.000000
    11  H    4.084455   3.460918   2.556782   3.115854   3.926812
    12  H    5.288996   4.487876   4.072323   3.755152   4.246491
    13  H    4.523421   4.355078   3.451776   2.551951   3.716614
                   11         12         13
    11  H    0.000000
    12  H    1.782351   0.000000
    13  H    1.760324   1.792540   0.000000
 Stoichiometry    C4H8O
 Framework group  C1[X(C4H8O)]
 Deg. of freedom    33
 Full point group                 C1      NOp   1
 RotChk:  IX=0 Diff= 7.09D-03
 Largest Abelian subgroup         C1      NOp   1
 Largest concise Abelian subgroup C1      NOp   1
                         Standard orientation:                         
 ---------------------------------------------------------------------
 Center     Atomic      Atomic             Coordinates (Angstroms)
 Number     Number       Type             X           Y           Z
 ---------------------------------------------------------------------
      1          6           0       -1.880323    0.228105   -0.397597
      2          6           0       -0.834635   -0.228398    0.639719
      3          6           0        0.580969   -0.219329    0.067723
      4          6           0        1.293270    1.123388   -0.018370
      5          8           0        1.131026   -1.251359   -0.264484
      6          1           0       -2.889739    0.158820    0.021195
      7          1           0       -1.842634   -0.405090   -1.290859
      8          1           0       -1.722438    1.266866   -0.709309
      9          1           0       -0.887153    0.425357    1.521331
     10          1           0       -1.049014   -1.253107    0.958063
     11          1           0        0.782016    1.780925   -0.733632
     12          1           0        2.323173    0.972790   -0.348240
     13          1           0        1.281892    1.641717    0.948475
 ---------------------------------------------------------------------
 Rotational constants (GHZ):      7.5586895      3.7471858      2.9417337
 Leave Link  202 at Thu Mar 19 18:32:45 2026, MaxMem=   536870912 cpu:         0.0
 (Enter C:\G09W\l301.exe)
 Standard basis: 6-31G(d) (6D, 7F)
 Ernie: Thresh=  0.10000D-02 Tol=  0.10000D-05 Strict=F.
 There are    91 symmetry adapted cartesian basis functions of A   symmetry.
 There are    91 symmetry adapted basis functions of A   symmetry.
    91 basis functions,   172 primitive gaussians,    91 cartesian basis functions
    20 alpha electrons       20 beta electrons
       nuclear repulsion energy       175.2009728198 Hartrees.
 IExCor=  402 DFT=T Ex+Corr=B3LYP ExCW=0 ScaHFX=  0.200000
 ScaDFX=  0.800000  0.720000  1.000000  0.810000 ScalE2=  1.000000  1.000000
 IRadAn=      0 IRanWt=     -1 IRanGd=            0 ICorTp=0 IEmpDi=  4
 NAtoms=   13 NActive=   13 NUniq=   13 SFac= 1.00D+00 NAtFMM=   60 NAOKFM=F Big=F
 Integral buffers will be    131072 words long.
 Raffenetti 2 integral format.
 Two-electron integral symmetry is turned on.
 Leave Link  301 at Thu Mar 19 18:32:45 2026, MaxMem=   536870912 cpu:         0.0
 (Enter C:\G09W\l302.exe)
 NPDir=0 NMtPBC=     1 NCelOv=     1 NCel=       1 NClECP=     1 NCelD=      1
         NCelK=      1 NCelE2=     1 NClLst=     1 CellRange=     0.0.
 One-electron integrals computed using PRISM.
 NBasis=    91 RedAO= T EigKep=  4.47D-03  NBF=    91
 NBsUse=    91 1.00D-06 EigRej= -1.00D+00 NBFU=    91
 Precomputing XC quadrature grid using
 IXCGrd= 4 IRadAn=           0 IRanWt=          -1 IRanGd=           0 AccXCQ= 0.00D+00.
 Generated NRdTot=       0 NPtTot=           0 NUsed=           0 NTot=          32
 NSgBfM=    91    91    91    91    91 MxSgAt=    13 MxSgA2=    13.
 Leave Link  302 at Thu Mar 19 18:32:45 2026, MaxMem=   536870912 cpu:         0.0
 (Enter C:\G09W\l303.exe)
 DipDrv:  MaxL=1.
 Leave Link  303 at Thu Mar 19 18:32:46 2026, MaxMem=   536870912 cpu:         1.0
 (Enter C:\G09W\l401.exe)
 Initial guess from the checkpoint file:  "MEK_rdkit.chk"
 B after Tr=     0.000000    0.000000    0.000000
         Rot=    0.999997    0.001928   -0.001338    0.000618 Ang=   0.28 deg.
 Guess basis will be translated and rotated to current coordinates.
 JPrj=2 DoOrth=T DoCkMO=T.
 Generating alternative initial guess.
 ExpMin= 1.61D-01 ExpMax= 5.48D+03 ExpMxC= 8.25D+02 IAcc=1 IRadAn=         1 AccDes= 0.00D+00
 Harris functional with IExCor=  402 and IRadAn=       1 diagonalized for initial guess.
 HarFok:  IExCor=  402 AccDes= 0.00D+00 IRadAn=         1 IDoV= 1 UseB2=F ITyADJ=14
 ICtDFT=  3500011 ScaDFX=  1.000000  1.000000  1.000000  1.000000
 FoFCou: FMM=F IPFlag=           0 FMFlag=      100000 FMFlg1=           0
         NFxFlg=           0 DoJE=T BraDBF=F KetDBF=T FulRan=T
         wScrn=  0.000000 ICntrl=     500 IOpCl=  0 I1Cent=   200000004 NGrid=           0
         NMat0=    1 NMatS0=      1 NMatT0=    0 NMatD0=    1 NMtDS0=    0 NMtDT0=    0
 Petite list used in FoFCou.
 Harris En= -232.522154701330    
 Leave Link  401 at Thu Mar 19 18:32:46 2026, MaxMem=   536870912 cpu:         0.0
 (Enter C:\G09W\l502.exe)
 Closed shell SCF:
 Using DIIS extrapolation, IDIIS=  1040.
 Integral symmetry usage will be decided dynamically.
 Keep R1 ints in memory in canonical form, NReq=9719015.
 IVT=       44638 IEndB=       44638 NGot=   536870912 MDV=   528062884
 LenX=   528062884 LenY=   528054162
 Requested convergence on RMS density matrix=1.00D-08 within 128 cycles.
 Requested convergence on MAX density matrix=1.00D-06.
 Requested convergence on             energy=1.00D-06.
 No special actions if energy rises.
 FoFCou: FMM=F IPFlag=           0 FMFlag=           0 FMFlg1=           0
         NFxFlg=           0 DoJE=F BraDBF=F KetDBF=F FulRan=T
         wScrn=  0.000000 ICntrl=     600 IOpCl=  0 I1Cent=           0 NGrid=           0
         NMat0=    1 NMatS0=   4186 NMatT0=    0 NMatD0=    1 NMtDS0=    0 NMtDT0=    0
 Symmetry not used in FoFCou.
 Integral accuracy reduced to 1.0D-05 until final iterations.

 Cycle   1  Pass 0  IDiag  1:
 E= -232.466443912957    
 DIIS: error= 1.95D-03 at cycle   1 NSaved=   1.
 NSaved= 1 IEnMin= 1 EnMin= -232.466443912957     IErMin= 1 ErrMin= 1.95D-03
 ErrMax= 1.95D-03  0.00D+00 EMaxC= 1.00D-01 BMatC= 5.98D-04 BMatP= 5.98D-04
 IDIUse=3 WtCom= 9.81D-01 WtEn= 1.95D-02
 Coeff-Com:  0.100D+01
 Coeff-En:   0.100D+01
 Coeff:      0.100D+01
 Gap=     1.869 Goal=   None    Shift=    0.000
 GapD=    1.869 DampG=2.000 DampE=1.000 DampFc=2.0000 IDamp=-1.
 RMSDP=5.11D-04 MaxDP=8.75D-03              OVMax= 1.02D-02

 Cycle   2  Pass 0  IDiag  1:
 E= -232.467584308354     Delta-E=       -0.001140395397 Rises=F Damp=F
 DIIS: error= 2.85D-04 at cycle   2 NSaved=   2.
 NSaved= 2 IEnMin= 2 EnMin= -232.467584308354     IErMin= 2 ErrMin= 2.85D-04
 ErrMax= 2.85D-04  0.00D+00 EMaxC= 1.00D-01 BMatC= 1.41D-05 BMatP= 5.98D-04
 IDIUse=3 WtCom= 9.97D-01 WtEn= 2.85D-03
 Coeff-Com: -0.592D-01 0.106D+01
 Coeff-En:   0.000D+00 0.100D+01
 Coeff:     -0.591D-01 0.106D+01
 Gap=     0.228 Goal=   None    Shift=    0.000
 RMSDP=8.13D-05 MaxDP=1.62D-03 DE=-1.14D-03 OVMax= 2.35D-03

 Cycle   3  Pass 0  IDiag  1:
 E= -232.467587773090     Delta-E=       -0.000003464736 Rises=F Damp=F
 DIIS: error= 5.32D-04 at cycle   3 NSaved=   3.
 NSaved= 3 IEnMin= 3 EnMin= -232.467587773090     IErMin= 2 ErrMin= 2.85D-04
 ErrMax= 5.32D-04  0.00D+00 EMaxC= 1.00D-01 BMatC= 2.03D-05 BMatP= 1.41D-05
 IDIUse=3 WtCom= 3.02D-01 WtEn= 6.98D-01
 Coeff-Com: -0.482D-01 0.616D+00 0.432D+00
 Coeff-En:   0.000D+00 0.417D+00 0.583D+00
 Coeff:     -0.146D-01 0.477D+00 0.537D+00
 Gap=     0.229 Goal=   None    Shift=    0.000
 RMSDP=6.88D-05 MaxDP=1.67D-03 DE=-3.46D-06 OVMax= 2.62D-03

 Cycle   4  Pass 0  IDiag  1:
 E= -232.467595441394     Delta-E=       -0.000007668304 Rises=F Damp=F
 DIIS: error= 3.69D-04 at cycle   4 NSaved=   4.
 NSaved= 4 IEnMin= 4 EnMin= -232.467595441394     IErMin= 2 ErrMin= 2.85D-04
 ErrMax= 3.69D-04  0.00D+00 EMaxC= 1.00D-01 BMatC= 1.05D-05 BMatP= 1.41D-05
 IDIUse=3 WtCom= 9.96D-01 WtEn= 3.69D-03
 Coeff-Com: -0.160D-01 0.160D+00 0.403D+00 0.452D+00
 Coeff-En:   0.000D+00 0.000D+00 0.375D+00 0.625D+00
 Coeff:     -0.159D-01 0.160D+00 0.403D+00 0.453D+00
 Gap=     0.228 Goal=   None    Shift=    0.000
 RMSDP=2.87D-05 MaxDP=7.68D-04 DE=-7.67D-06 OVMax= 1.18D-03

 Cycle   5  Pass 0  IDiag  1:
 E= -232.467603506908     Delta-E=       -0.000008065514 Rises=F Damp=F
 DIIS: error= 1.82D-05 at cycle   5 NSaved=   5.
 NSaved= 5 IEnMin= 5 EnMin= -232.467603506908     IErMin= 5 ErrMin= 1.82D-05
 ErrMax= 1.82D-05  0.00D+00 EMaxC= 1.00D-01 BMatC= 7.10D-08 BMatP= 1.05D-05
 IDIUse=1 WtCom= 1.00D+00 WtEn= 0.00D+00
 Coeff-Com: -0.358D-02 0.271D-01 0.150D+00 0.200D+00 0.626D+00
 Coeff:     -0.358D-02 0.271D-01 0.150D+00 0.200D+00 0.626D+00
 Gap=     0.228 Goal=   None    Shift=    0.000
 RMSDP=3.19D-06 MaxDP=5.81D-05 DE=-8.07D-06 OVMax= 6.45D-05

 Initial convergence to 1.0D-05 achieved.  Increase integral accuracy.
 Cycle   6  Pass 1  IDiag  1:
[...]
    D2       -1.03389   0.00000   0.00026   0.00022   0.00048  -1.03341
    D3        1.04303   0.00000   0.00022   0.00022   0.00044   1.04347
    D4        1.02295   0.00000   0.00022   0.00018   0.00040   1.02335
    D5       -3.12480   0.00000   0.00025   0.00019   0.00044  -3.12436
    D6       -1.04788   0.00000   0.00021   0.00019   0.00040  -1.04747
    D7       -1.07590   0.00000   0.00023   0.00020   0.00043  -1.07547
    D8        1.05954   0.00000   0.00027   0.00021   0.00047   1.06001
    D9        3.13646   0.00000   0.00022   0.00021   0.00043   3.13689
   D10        1.61992   0.00000   0.00053   0.00005   0.00058   1.62050
   D11       -1.49679   0.00000   0.00054   0.00002   0.00056  -1.49623
   D12       -0.50845   0.00000   0.00048   0.00002   0.00050  -0.50794
   D13        2.65803   0.00000   0.00049   0.00000   0.00049   2.65852
   D14       -2.57316   0.00000   0.00054   0.00004   0.00057  -2.57258
   D15        0.59332   0.00000   0.00055   0.00001   0.00056   0.59388
   D16       -0.85085   0.00000  -0.00077   0.00005  -0.00073  -0.85158
   D17       -2.98088   0.00000  -0.00067   0.00003  -0.00064  -2.98153
   D18        1.20352   0.00000  -0.00075   0.00003  -0.00072   1.20280
   D19        2.26564   0.00000  -0.00079   0.00008  -0.00071   2.26493
   D20        0.13561   0.00000  -0.00068   0.00006  -0.00063   0.13498
   D21       -1.96318   0.00000  -0.00076   0.00005  -0.00071  -1.96388
         Item               Value     Threshold  Converged?
 Maximum Force            0.000008     0.000450     YES
 RMS     Force            0.000003     0.000300     YES
 Maximum Displacement     0.001151     0.001800     YES
 RMS     Displacement     0.000439     0.001200     YES
 Predicted change in Energy=-6.195908D-09
 Optimization completed.
    -- Stationary point found.
                           ----------------------------
                           !   Optimized Parameters   !
                           ! (Angstroms and Degrees)  !
 --------------------------                            --------------------------
 ! Name  Definition              Value          Derivative Info.                !
 --------------------------------------------------------------------------------
 ! R1    R(1,2)                  1.5409         -DE/DX =    0.0                 !
 ! R2    R(1,6)                  1.0949         -DE/DX =    0.0                 !
 ! R3    R(1,7)                  1.0946         -DE/DX =    0.0                 !
 ! R4    R(1,8)                  1.0962         -DE/DX =    0.0                 !
 ! R5    R(2,3)                  1.5263         -DE/DX =    0.0                 !
 ! R6    R(2,9)                  1.0971         -DE/DX =    0.0                 !
 ! R7    R(2,10)                 1.0949         -DE/DX =    0.0                 !
 ! R8    R(3,4)                  1.5194         -DE/DX =    0.0                 !
 ! R9    R(3,5)                  1.2166         -DE/DX =    0.0                 !
 ! R10   R(4,11)                 1.0971         -DE/DX =    0.0                 !
 ! R11   R(4,12)                 1.0918         -DE/DX =    0.0                 !
 ! R12   R(4,13)                 1.0981         -DE/DX =    0.0                 !
 ! A1    A(2,1,6)              110.5729         -DE/DX =    0.0                 !
 ! A2    A(2,1,7)              110.3939         -DE/DX =    0.0                 !
 ! A3    A(2,1,8)              111.614          -DE/DX =    0.0                 !
 ! A4    A(6,1,7)              108.2803         -DE/DX =    0.0                 !
 ! A5    A(6,1,8)              107.7601         -DE/DX =    0.0                 !
 ! A6    A(7,1,8)              108.1014         -DE/DX =    0.0                 !
 ! A7    A(1,2,3)              110.6788         -DE/DX =    0.0                 !
 ! A8    A(1,2,9)              109.8536         -DE/DX =    0.0                 !
 ! A9    A(1,2,10)             109.5573         -DE/DX =    0.0                 !
 ! A10   A(3,2,9)              110.5455         -DE/DX =    0.0                 !
 ! A11   A(3,2,10)             107.7264         -DE/DX =    0.0                 !
 ! A12   A(9,2,10)             108.4204         -DE/DX =    0.0                 !
 ! A13   A(2,3,4)              117.0472         -DE/DX =    0.0                 !
 ! A14   A(2,3,5)              121.0663         -DE/DX =    0.0                 !
 ! A15   A(4,3,5)              121.8705         -DE/DX =    0.0                 !
 ! A16   A(3,4,11)             111.0419         -DE/DX =    0.0                 !
 ! A17   A(3,4,12)             110.1313         -DE/DX =    0.0                 !
 ! A18   A(3,4,13)             109.6532         -DE/DX =    0.0                 !
 ! A19   A(11,4,12)            109.9583         -DE/DX =    0.0                 !
 ! A20   A(11,4,13)            106.7325         -DE/DX =    0.0                 !
 ! A21   A(12,4,13)            109.251          -DE/DX =    0.0                 !
 ! D1    D(6,1,2,3)            178.4108         -DE/DX =    0.0                 !
 ! D2    D(6,1,2,9)            -59.2377         -DE/DX =    0.0                 !
 ! D3    D(6,1,2,10)            59.7613         -DE/DX =    0.0                 !
 ! D4    D(7,1,2,3)             58.6105         -DE/DX =    0.0                 !
 ! D5    D(7,1,2,9)           -179.0381         -DE/DX =    0.0                 !
 ! D6    D(7,1,2,10)           -60.039          -DE/DX =    0.0                 !
 ! D7    D(8,1,2,3)            -61.6445         -DE/DX =    0.0                 !
 ! D8    D(8,1,2,9)             60.707          -DE/DX =    0.0                 !
 ! D9    D(8,1,2,10)           179.706          -DE/DX =    0.0                 !
 ! D10   D(1,2,3,4)             92.8145         -DE/DX =    0.0                 !
 ! D11   D(1,2,3,5)            -85.7597         -DE/DX =    0.0                 !
 ! D12   D(9,2,3,4)            -29.1319         -DE/DX =    0.0                 !
 ! D13   D(9,2,3,5)            152.2939         -DE/DX =    0.0                 !
 ! D14   D(10,2,3,4)          -147.4309         -DE/DX =    0.0                 !
 ! D15   D(10,2,3,5)            33.9949         -DE/DX =    0.0                 !
 ! D16   D(2,3,4,11)           -48.7501         -DE/DX =    0.0                 !
 ! D17   D(2,3,4,12)          -170.7921         -DE/DX =    0.0                 !
 ! D18   D(2,3,4,13)            68.9565         -DE/DX =    0.0                 !
 ! D19   D(5,3,4,11)           129.8117         -DE/DX =    0.0                 !
 ! D20   D(5,3,4,12)             7.7697         -DE/DX =    0.0                 !
 ! D21   D(5,3,4,13)          -112.4817         -DE/DX =    0.0                 !
 --------------------------------------------------------------------------------
 GradGradGradGradGradGradGradGradGradGradGradGradGradGradGradGradGradGrad

 Largest change from initial coordinates is atom   13       0.589 Angstoms.
 Leave Link  103 at Thu Mar 19 18:35:09 2026, MaxMem=   536870912 cpu:         0.0
 (Enter C:\G09W\l202.exe)
                          Input orientation:                          
 ---------------------------------------------------------------------
 Center     Atomic      Atomic             Coordinates (Angstroms)
 Number     Number       Type             X           Y           Z
 ---------------------------------------------------------------------
      1          6           0        1.645617   -0.177658   -0.363920
      2          6           0        0.500894   -0.547929    0.598800
      3          6           0       -0.585383    0.524119    0.582143
      4          6           0       -1.742235    0.320612   -0.381673
      5          8           0       -0.507153    1.508240    1.293117
      6          1           0        2.436873   -0.933670   -0.329656
      7          1           0        2.080695    0.787569   -0.085895
      8          1           0        1.294931   -0.107372   -1.400182
      9          1           0        0.082864   -1.523969    0.322705
     10          1           0        0.888355   -0.614061    1.620698
     11          1           0       -1.378717    0.072303   -1.386550
     12          1           0       -2.361286    1.219146   -0.420767
     13          1           0       -2.355454   -0.527330   -0.048821
 ---------------------------------------------------------------------
                    Distance matrix (angstroms):
                    1          2          3          4          5
     1  C    0.000000
     2  C    1.540884   0.000000
     3  C    2.522873   1.526290   0.000000
     4  C    3.424344   2.597560   1.519428   0.000000
     5  O    3.197255   2.392919   1.216593   2.395998   0.000000
     6  H    1.094903   2.181477   3.477148   4.363584   4.154949
     7  H    1.094647   2.179021   2.761096   3.862684   3.019601
     8  H    1.096248   2.195567   2.804279   3.231859   3.620990
     9  H    2.173984   1.097101   2.169914   2.688794   3.237917
    10  H    2.168549   1.094886   2.132124   3.435565   2.561037
    11  H    3.202320   2.803434   2.170085   1.097079   3.162618
    12  H    4.243768   3.514847   2.154698   1.091840   2.541414
    13  H    4.028664   2.928918   2.153326   1.098105   3.059503
                    6          7          8          9         10
     6  H    0.000000
     7  H    1.774527   0.000000
     8  H    1.769978   1.773611   0.000000
     9  H    2.513043   3.082448   2.538542   0.000000
    10  H    2.510765   2.509721   3.089944   1.778070   0.000000
    11  H    4.085062   3.764418   2.679714   2.757872   3.828087
    12  H    5.259776   4.475443   4.010839   3.748506   4.253045
    13  H    4.817715   4.627067   3.915081   2.660210   3.649262
                   11         12         13
    11  H    0.000000
    12  H    1.792603   0.000000
    13  H    1.761560   1.785653   0.000000
 Stoichiometry    C4H8O
 Framework group  C1[X(C4H8O)]
 Deg. of freedom    33
 Full point group                 C1      NOp   1
 RotChk:  IX=3 Diff= 2.56D-15
 Largest Abelian subgroup         C1      NOp   1
 Largest concise Abelian subgroup C1      NOp   1
                         Standard orientation:                         
 ---------------------------------------------------------------------
 Center     Atomic      Atomic             Coordinates (Angstroms)
 Number     Number       Type             X           Y           Z
 ---------------------------------------------------------------------
      1          6           0       -1.866266    0.198187   -0.434496
      2          6           0       -0.825454    0.038552    0.690470
      3          6           0        0.561709   -0.219940    0.108641
      4          6           0        1.450514    0.990526   -0.122569
      5          8           0        0.921866   -1.345733   -0.179411
      6          1           0       -2.865270    0.355482   -0.014898
      7          1           0       -1.893758   -0.700380   -1.059055
      8          1           0       -1.635823    1.054258   -1.079320
      9          1           0       -0.817397    0.936478    1.320784
     10          1           0       -1.090176   -0.820536    1.315502
     11          1           0        0.908867    1.780519   -0.657463
     12          1           0        2.340049    0.701473   -0.685856
     13          1           0        1.755561    1.414621    0.843311
 ---------------------------------------------------------------------
 Rotational constants (GHZ):      7.5983155      3.7472250      2.9921864
 Leave Link  202 at Thu Mar 19 18:35:09 2026, MaxMem=   536870912 cpu:         0.0
 (Enter C:\G09W\l601.exe)
 Copying SCF densities to generalized density rwf, IOpCl= 0 IROHF=0.

 **********************************************************************

            Population analysis using the SCF density.

 **********************************************************************

 Orbital symmetries:
       Occupied  (A) (A) (A) (A) (A) (A) (A) (A) (A) (A) (A) (A)
                 (A) (A) (A) (A) (A) (A) (A) (A)
       Virtual   (A) (A) (A) (A) (A) (A) (A) (A) (A) (A) (A) (A)
                 (A) (A) (A) (A) (A) (A) (A) (A) (A) (A) (A) (A)
                 (A) (A) (A) (A) (A) (A) (A) (A) (A) (A) (A) (A)
                 (A) (A) (A) (A) (A) (A) (A) (A) (A) (A) (A) (A)
                 (A) (A) (A) (A) (A) (A) (A) (A) (A) (A) (A) (A)
                 (A) (A) (A) (A) (A) (A) (A) (A) (A) (A) (A)
 The electronic state is 1-A.
 Alpha  occ. eigenvalues --  -19.13355 -10.27310 -10.19352 -10.18989 -10.18974
 Alpha  occ. eigenvalues --   -1.03337  -0.78639  -0.73306  -0.64367  -0.52697
 Alpha  occ. eigenvalues --   -0.46853  -0.46084  -0.44239  -0.41219  -0.40655
 Alpha  occ. eigenvalues --   -0.38499  -0.36932  -0.35291  -0.33873  -0.24033
 Alpha virt. eigenvalues --   -0.01150   0.08407   0.12581   0.13822   0.15051
 Alpha virt. eigenvalues --    0.15703   0.16867   0.17733   0.19299   0.20942
 Alpha virt. eigenvalues --    0.23635   0.29988   0.33199   0.50177   0.52723
 Alpha virt. eigenvalues --    0.53189   0.55277   0.57768   0.60766   0.63990
 Alpha virt. eigenvalues --    0.66428   0.69496   0.72616   0.75000   0.79948
 Alpha virt. eigenvalues --    0.82668   0.86269   0.87186   0.88063   0.89727
 Alpha virt. eigenvalues --    0.91810   0.93629   0.95292   0.98002   1.03251
 Alpha virt. eigenvalues --    1.04439   1.09555   1.21170   1.24797   1.40234
 Alpha virt. eigenvalues --    1.43193   1.50560   1.63173   1.68332   1.72700
 Alpha virt. eigenvalues --    1.77726   1.79998   1.85323   1.88861   1.91160
 Alpha virt. eigenvalues --    1.96786   1.98829   2.06835   2.13010   2.15506
 Alpha virt. eigenvalues --    2.24339   2.27541   2.30204   2.35993   2.39400
 Alpha virt. eigenvalues --    2.48237   2.59642   2.65271   2.70718   2.96747
 Alpha virt. eigenvalues --    2.97863   3.99768   4.08524   4.20730   4.39332
 Alpha virt. eigenvalues --    4.51997
          Condensed to atoms (all electrons):
               1          2          3          4          5          6
     1  C    5.055696   0.355206  -0.028323   0.000587  -0.002851   0.376753
     2  C    0.355206   5.259690   0.322537  -0.132958  -0.082018  -0.027969
     3  C   -0.028323   0.322537   4.461684   0.317890   0.590237   0.003309
     4  C    0.000587  -0.132958   0.317890   5.365105  -0.081957  -0.000202
     5  O   -0.002851  -0.082018   0.590237  -0.081957   7.994753  -0.000024
     6  H    0.376753  -0.027969   0.003309  -0.000202  -0.000024   0.559146
     7  H    0.378801  -0.039380  -0.002774   0.000768   0.004064  -0.028737
     8  H    0.378030  -0.038763  -0.003741   0.002156   0.000014  -0.030983
     9  H   -0.034013   0.343550  -0.027358   0.004428   0.003577  -0.003657
    10  H   -0.027165   0.353323  -0.023302   0.006233   0.002423  -0.004308
    11  H    0.000037   0.004773  -0.023277   0.350213   0.001852  -0.000036
    12  H   -0.000159   0.006128  -0.019968   0.350402   0.005409   0.000005
    13  H    0.000169   0.002227  -0.018048   0.349369   0.000977  -0.000001
               7          8          9         10         11         12
     1  C    0.378801   0.378030  -0.034013  -0.027165   0.000037  -0.000159
     2  C   -0.039380  -0.038763   0.343550   0.353323   0.004773   0.006128
     3  C   -0.002774  -0.003741  -0.027358  -0.023302  -0.023277  -0.019968
     4  C    0.000768   0.002156   0.004428   0.006233   0.350213   0.350402
     5  O    0.004064   0.000014   0.003577   0.002423   0.001852   0.005409
     6  H   -0.028737  -0.030983  -0.003657  -0.004308  -0.000036   0.000005
     7  H    0.544636  -0.029798   0.005355  -0.003280  -0.000167  -0.000010
     8  H   -0.029798   0.572097  -0.003854   0.004879   0.002041  -0.000123
     9  H    0.005355  -0.003854   0.605728  -0.032502  -0.001182  -0.000038
    10  H   -0.003280   0.004879  -0.032502   0.557439   0.000064  -0.000190
    11  H   -0.000167   0.002041  -0.001182   0.000064   0.551318  -0.023282
    12  H   -0.000010  -0.000123  -0.000038  -0.000190  -0.023282   0.523902
    13  H   -0.000005  -0.000014   0.000669  -0.000258  -0.027141  -0.021229
              13
     1  C    0.000169
     2  C    0.002227
     3  C   -0.018048
     4  C    0.349369
     5  O    0.000977
     6  H   -0.000001
     7  H   -0.000005
     8  H   -0.000014
     9  H    0.000669
    10  H   -0.000258
    11  H   -0.027141
    12  H   -0.021229
    13  H    0.541991
 Mulliken charges:
               1
     1  C   -0.452767
     2  C   -0.326345
     3  C    0.451134
     4  C   -0.532034
     5  O   -0.436456
     6  H    0.156704
     7  H    0.170527
     8  H    0.148059
     9  H    0.139298
    10  H    0.166645
    11  H    0.164787
    12  H    0.179153
    13  H    0.171295
 Sum of Mulliken charges =   0.00000
 Mulliken charges with hydrogens summed into heavy atoms:
               1
     1  C    0.022522
     2  C   -0.020401
     3  C    0.451134
     4  C   -0.016798
     5  O   -0.436456
 Electronic spatial extent (au):  <R**2>=            477.1108
 Charge=              0.0000 electrons
 Dipole moment (field-independent basis, Debye):
    X=             -1.0008    Y=              2.5047    Z=              0.5711  Tot=              2.7571
 Quadrupole moment (field-independent basis, Debye-Ang):
   XX=            -30.8970   YY=            -34.3116   ZZ=            -30.6221
   XY=              2.8687   XZ=              0.3955   YZ=             -0.6013
 Traceless Quadrupole moment (field-independent basis, Debye-Ang):
   XX=              1.0466   YY=             -2.3680   ZZ=              1.3215
   XY=              2.8687   XZ=              0.3955   YZ=             -0.6013
 Octapole moment (field-independent basis, Debye-Ang**2):
  XXX=              2.6594  YYY=              0.8515  ZZZ=             -0.0010  XYY=             -2.4858
  XXY=              0.8832  XXZ=              0.6727  XZZ=              1.7082  YZZ=             -1.4812
  YYZ=              0.6433  XYZ=             -0.2839
 Hexadecapole moment (field-independent basis, Debye-Ang**3):
 XXXX=           -365.5925 YYYY=           -168.2702 ZZZZ=            -85.4744 XXXY=             -1.3998
 XXXZ=             -4.2229 YYYX=              0.3268 YYYZ=             -0.6104 ZZZX=             -0.2004
 ZZZY=              1.2450 XXYY=            -93.3313 XXZZ=            -75.4408 YYZZ=            -38.4225
 XXYZ=              0.6364 YYXZ=              1.6478 ZZXY=              0.0766
 N-N= 1.755054325742D+02 E-N=-8.917046524914D+02  KE= 2.302583320630D+02
 No NMR shielding tensors so no spin-rotation constants.
 Leave Link  601 at Thu Mar 19 18:35:10 2026, MaxMem=   536870912 cpu:         0.0
 (Enter C:\G09W\l9999.exe)
 1|1|UNPC-DESKTOP-GS7R1K3|FOpt|RB3LYP|6-31G(d)|C4H8O1|1172|19-Mar-2026|
 0||#p opt B3LYP/6-31G(d)||MEK||0,1|C,1.6456174434,-0.1776577887,-0.363
 9201876|C,0.5008939234,-0.5479289489,0.5988000773|C,-0.5853833395,0.52
 41187828,0.5821430327|C,-1.7422351078,0.3206121631,-0.3816725039|O,-0.
 5071525773,1.5082398131,1.2931166315|H,2.4368725464,-0.9336697765,-0.3
 296563669|H,2.0806945598,0.7875689014,-0.0858946209|H,1.2949314205,-0.
 1073721132,-1.4001823005|H,0.0828641328,-1.5239687794,0.322705197|H,0.
 8883545419,-0.6140608944,1.6206980845|H,-1.3787171475,0.0723027949,-1.
 3865499443|H,-2.3612861557,1.2191459534,-0.4207674215|H,-2.3554542404,
 -0.5273301076,-0.0488206774||Version=EM64W-G09RevD.01|State=1-A|HF=-23
 2.4680923|RMSD=9.385e-009|RMSF=5.871e-006|Dipole=0.0099154,-0.869085,-
 0.649013|Quadrupole=1.8320167,-1.3376643,-0.4943525,0.4909753,0.630631
 7,-1.9587522|PG=C01 [X(C4H8O1)]||@


 "TIGER, TIGER BURNING BRIGHT
 IN THE FOREST OF THE NIGHT.
 WHAT IMMORTAL HAND OR EYE
 CAN FRAME THY FEARFUL SYMMETRYE?"
                     - WILLIAM BLAKE
 Job cpu time:       0 days  0 hours  2 minutes 59.0 seconds.
 File lengths (MBytes):  RWF=      6 Int=      0 D2E=      0 Chk=      2 Scr=      1
 Normal termination of Gaussian 09 at Thu Mar 19 18:35:10 2026.
