 Entering Gaussian System, Link 0=C:\G09W\g09.exe
 Input=2-propanol_rdkit.com
 Output=C:\workspace\delta_chem\data\raw\2-propanol\2-propanol_rdkit.out
 Initial command:
 C:\G09W\l1.exe ".\Gau-15784.inp" "C:\workspace\delta_chem\data\raw\2-propanol\2-propanol_rdkit.out" /scrdir=".\"
 Entering Link 1 = C:\G09W\l1.exe PID=      7184.
  
 Copyright (c) 1988,1990,1992,1993,1995,1998,2003,2009,2013,
            Gaussian, Inc.  All Rights Reserved.
  
 This is part of the Gaussian(R) 09 program.  It is based on
 the Gaussian(R) 03 system (copyright 2003, Gaussian, Inc.),
 the Gaussian(R) 98 system (copyright 1998, Gaussian, Inc.),
 the Gaussian(R) 94 system (copyright 1995, Gaussian, Inc.),
 the Gaussian 92(TM) system (copyright 1992, Gaussian, Inc.),
 the Gaussian 90(TM) system (copyright 1990, Gaussian, Inc.),
 the Gaussian 88(TM) system (copyright 1988, Gaussian, Inc.),
 the Gaussian 86(TM) system (copyright 1986, Carnegie Mellon
 University), and the Gaussian 82(TM) system (copyright 1983,
 Carnegie Mellon University). Gaussian is a federally registered
 trademark of Gaussian, Inc.
  
 This software contains proprietary and confidential information,
 including trade secrets, belonging to Gaussian, Inc.
  
 This software is provided under written license and may be
 used, copied, transmitted, or stored only in accord with that
 written license.
  
 The following legend is applicable only to US Government
 contracts under FAR:
  
                    RESTRICTED RIGHTS LEGEND
  
 Use, reproduction and disclosure by the US Government is
 subject to restrictions as set forth in subparagraphs (a)
 and (c) of the Commercial Computer Software - Restricted
 Rights clause in FAR 52.227-19.
  
 Gaussian, Inc.
 340 Quinnipiac St., Bldg. 40, Wallingford CT 06492
  
  
 ---------------------------------------------------------------
 Warning -- This program may not be used in any manner that
 competes with the business of Gaussian, Inc. or will provide
 assistance to any competitor of Gaussian, Inc.  The licensee
 of this program is prohibited from giving any competitor of
 Gaussian, Inc. access to this program.  By using this program,
 the user acknowledges that Gaussian, Inc. is engaged in the
 business of creating and licensing software in the field of
 computational chemistry and represents and warrants to the
 licensee that it is not a competitor of Gaussian, Inc. and that
 it will not use this program in any manner prohibited above.
 ---------------------------------------------------------------
  

 Cite this work as:
 Gaussian 09, Revision D.01,
 M. J. Frisch, G. W. Trucks, H. B. Schlegel, G. E. Scuseria, 
 M. A. Robb, J. R. Cheeseman, G. Scalmani, V. Barone, B. Mennucci, 
 G. A. Petersson, H. Nakatsuji, M. Caricato, X. Li, H. P. Hratchian, 
 A. F. Izmaylov, J. Bloino, G. Zheng, J. L. Sonnenberg, M. Hada, 
 M. Ehara, K. Toyota, R. Fukuda, J. Hasegawa, M. Ishida, T. Nakajima, 
 Y. Honda, O. Kitao, H. Nakai, T. Vreven, J. A. Montgomery, Jr., 
 J. E. Peralta, F. Ogliaro, M. Bearpark, J. J. Heyd, E. Brothers, 
 K. N. Kudin, V. N. Staroverov, T. Keith, R. Kobayashi, J. Normand, 
 K. Raghavachari, A. Rendell, J. C. Burant, S. S. Iyengar, J. Tomasi, 
 M. Cossi, N. Rega, J. M. Millam, M. Klene, J. E. Knox, J. B. Cross, 
 V. Bakken, C. Adamo, J. Jaramillo, R. Gomperts, R. E. Stratmann, 
 O. Yazyev, A. J. Austin, R. Cammi, C. Pomelli, J. W. Ochterski, 
 R. L. Martin, K. Morokuma, V. G. Zakrzewski, G. A. Voth, 
 P. Salvador, J. J. Dannenberg, S. Dapprich, A. D. Daniels, 
 O. Farkas, J. B. Foresman, J. V. Ortiz, J. Cioslowski, 
 and D. J. Fox, Gaussian, Inc., Wallingford CT, 2013.
 
 ******************************************
 Gaussian 09:  EM64W-G09RevD.01 13-Apr-2013
                19-Mar-2026 
 ******************************************
 %NProcShared=4
 Will use up to    4 processors via shared memory.
 %Mem=4GB
 %Chk=2-propanol_rdkit.chk
 ---------------------
 #p opt B3LYP/6-31G(d)
 ---------------------
 1/14=-1,18=20,19=15,26=3,38=1/1,3;
 2/9=110,12=2,17=6,18=5,40=1/2;
 3/5=1,6=6,7=1,11=2,16=1,25=1,30=1,71=1,74=-5/1,2,3;
 4//1;
 5/5=2,38=5/2;
 6/7=2,8=2,9=2,10=2,28=1/1;
 7//1,2,3,16;
 1/14=-1,18=20,19=15,26=3/3(2);
 2/9=110/2;
 99//99;
 2/9=110/2;
 3/5=1,6=6,7=1,11=2,16=1,25=1,30=1,71=1,74=-5/1,2,3;
 4/5=5,16=3,69=1/1;
 5/5=2,38=5/2;
 7//1,2,3,16;
 1/14=-1,18=20,19=15,26=3/3(-5);
 2/9=110/2;
 6/7=2,8=2,9=2,10=2,19=2,28=1/1;
 99/9=1/99;
 Leave Link    1 at Thu Mar 19 18:25:46 2026, MaxMem=   536870912 cpu:         0.0
 (Enter C:\G09W\l101.exe)
 ----------
 2-propanol
 ----------
 Symbolic Z-matrix:
 Charge =  0 Multiplicity = 1
 C                    -1.14171  -0.52825  -0.3822 
 C                     0.0605    0.40359  -0.38408 
 O                    -0.29182   1.62465   0.259 
 C                     1.2554   -0.21102   0.32875 
 H                    -1.99284  -0.05314  -0.88174 
 H                    -1.4637   -0.75427   0.64034 
 H                    -0.91628  -1.46863  -0.89417 
 H                     0.33487   0.64403  -1.41645 
 H                    -0.53705   1.41935   1.17743 
 H                     2.09839   0.4883    0.33167 
 H                     1.02138  -0.42539   1.37739 
 H                     1.57285  -1.13922  -0.15593 
 
 NAtoms=     12 NQM=       12 NQMF=       0 NMMI=      0 NMMIF=      0
                NMic=       0 NMicF=      0.
                    Isotopes and Nuclear Properties:
 (Nuclear quadrupole moments (NQMom) in fm**2, nuclear magnetic moments (NMagM)
  in nuclear magnetons)

  Atom         1           2           3           4           5           6           7           8           9          10
 IAtWgt=          12          12          16          12           1           1           1           1           1           1
 AtmWgt=  12.0000000  12.0000000  15.9949146  12.0000000   1.0078250   1.0078250   1.0078250   1.0078250   1.0078250   1.0078250
 NucSpn=           0           0           0           0           1           1           1           1           1           1
 AtZEff=   0.0000000   0.0000000   0.0000000   0.0000000   0.0000000   0.0000000   0.0000000   0.0000000   0.0000000   0.0000000
 NQMom=    0.0000000   0.0000000   0.0000000   0.0000000   0.0000000   0.0000000   0.0000000   0.0000000   0.0000000   0.0000000
 NMagM=    0.0000000   0.0000000   0.0000000   0.0000000   2.7928460   2.7928460   2.7928460   2.7928460   2.7928460   2.7928460
 AtZNuc=   6.0000000   6.0000000   8.0000000   6.0000000   1.0000000   1.0000000   1.0000000   1.0000000   1.0000000   1.0000000

  Atom        11          12
 IAtWgt=           1           1
 AtmWgt=   1.0078250   1.0078250
 NucSpn=           1           1
 AtZEff=   0.0000000   0.0000000
 NQMom=    0.0000000   0.0000000
 NMagM=    2.7928460   2.7928460
 AtZNuc=   1.0000000   1.0000000
 Leave Link  101 at Thu Mar 19 18:25:47 2026, MaxMem=   536870912 cpu:         0.0
 (Enter C:\G09W\l103.exe)

 GradGradGradGradGradGradGradGradGradGradGradGradGradGradGradGradGradGrad
 Berny optimization.
 Initialization pass.
                           ----------------------------
                           !    Initial Parameters    !
                           ! (Angstroms and Degrees)  !
 --------------------------                            --------------------------
 ! Name  Definition              Value          Derivative Info.                !
 --------------------------------------------------------------------------------
 ! R1    R(1,2)                  1.5211         estimate D2E/DX2                !
 ! R2    R(1,5)                  1.0953         estimate D2E/DX2                !
 ! R3    R(1,6)                  1.0956         estimate D2E/DX2                !
 ! R4    R(1,7)                  1.0942         estimate D2E/DX2                !
 ! R5    R(2,3)                  1.4243         estimate D2E/DX2                !
 ! R6    R(2,4)                  1.5211         estimate D2E/DX2                !
 ! R7    R(2,8)                  1.0949         estimate D2E/DX2                !
 ! R8    R(3,9)                  0.9725         estimate D2E/DX2                !
 ! R9    R(4,10)                 1.0953         estimate D2E/DX2                !
 ! R10   R(4,11)                 1.0956         estimate D2E/DX2                !
 ! R11   R(4,12)                 1.0942         estimate D2E/DX2                !
 ! A1    A(2,1,5)              110.3573         estimate D2E/DX2                !
 ! A2    A(2,1,6)              111.0892         estimate D2E/DX2                !
 ! A3    A(2,1,7)              111.2901         estimate D2E/DX2                !
 ! A4    A(5,1,6)              106.6646         estimate D2E/DX2                !
 ! A5    A(5,1,7)              108.6326         estimate D2E/DX2                !
 ! A6    A(6,1,7)              108.6599         estimate D2E/DX2                !
 ! A7    A(1,2,3)              109.216          estimate D2E/DX2                !
 ! A8    A(1,2,4)              111.8867         estimate D2E/DX2                !
 ! A9    A(1,2,8)              109.4965         estimate D2E/DX2                !
 ! A10   A(3,2,4)              109.2161         estimate D2E/DX2                !
 ! A11   A(3,2,8)              107.4229         estimate D2E/DX2                !
 ! A12   A(4,2,8)              109.4964         estimate D2E/DX2                !
 ! A13   A(2,3,9)              107.9255         estimate D2E/DX2                !
 ! A14   A(2,4,10)             110.3573         estimate D2E/DX2                !
 ! A15   A(2,4,11)             111.0891         estimate D2E/DX2                !
 ! A16   A(2,4,12)             111.2902         estimate D2E/DX2                !
 ! A17   A(10,4,11)            106.6645         estimate D2E/DX2                !
 ! A18   A(10,4,12)            108.6326         estimate D2E/DX2                !
 ! A19   A(11,4,12)            108.6599         estimate D2E/DX2                !
 ! D1    D(5,1,2,3)             57.7301         estimate D2E/DX2                !
 ! D2    D(5,1,2,4)            178.7709         estimate D2E/DX2                !
 ! D3    D(5,1,2,8)            -59.6429         estimate D2E/DX2                !
 ! D4    D(6,1,2,3)            -60.3643         estimate D2E/DX2                !
 ! D5    D(6,1,2,4)             60.6765         estimate D2E/DX2                !
 ! D6    D(6,1,2,8)           -177.7372         estimate D2E/DX2                !
 ! D7    D(7,1,2,3)            178.4162         estimate D2E/DX2                !
 ! D8    D(7,1,2,4)            -60.543          estimate D2E/DX2                !
 ! D9    D(7,1,2,8)             61.0433         estimate D2E/DX2                !
 ! D10   D(1,2,3,9)             61.3264         estimate D2E/DX2                !
 ! D11   D(4,2,3,9)            -61.3265         estimate D2E/DX2                !
 ! D12   D(8,2,3,9)            180.0            estimate D2E/DX2                !
 ! D13   D(1,2,4,10)          -178.7708         estimate D2E/DX2                !
 ! D14   D(1,2,4,11)           -60.6766         estimate D2E/DX2                !
 ! D15   D(1,2,4,12)            60.5429         estimate D2E/DX2                !
 ! D16   D(3,2,4,10)           -57.73           estimate D2E/DX2                !
 ! D17   D(3,2,4,11)            60.3642         estimate D2E/DX2                !
 ! D18   D(3,2,4,12)          -178.4163         estimate D2E/DX2                !
 ! D19   D(8,2,4,10)            59.6429         estimate D2E/DX2                !
 ! D20   D(8,2,4,11)           177.7372         estimate D2E/DX2                !
 ! D21   D(8,2,4,12)           -61.0433         estimate D2E/DX2                !
 --------------------------------------------------------------------------------
 Trust Radius=3.00D-01 FncErr=1.00D-07 GrdErr=1.00D-06
 Number of steps in this run=     61 maximum allowed number of steps=    100.
 GradGradGradGradGradGradGradGradGradGradGradGradGradGradGradGradGradGrad

 Leave Link  103 at Thu Mar 19 18:25:47 2026, MaxMem=   536870912 cpu:         0.0
 (Enter C:\G09W\l202.exe)
                          Input orientation:                          
 ---------------------------------------------------------------------
 Center     Atomic      Atomic             Coordinates (Angstroms)
 Number     Number       Type             X           Y           Z
 ---------------------------------------------------------------------
      1          6           0       -1.141708   -0.528253   -0.382201
      2          6           0        0.060503    0.403587   -0.384082
      3          8           0       -0.291824    1.624651    0.258995
      4          6           0        1.255397   -0.211016    0.328751
      5          1           0       -1.992837   -0.053139   -0.881741
      6          1           0       -1.463700   -0.754272    0.640342
      7          1           0       -0.916276   -1.468633   -0.894173
      8          1           0        0.334870    0.644033   -1.416450
      9          1           0       -0.537051    1.419346    1.177430
     10          1           0        2.098392    0.488302    0.331669
     11          1           0        1.021384   -0.425390    1.377388
     12          1           0        1.572851   -1.139218   -0.155927
 ---------------------------------------------------------------------
                    Distance matrix (angstroms):
                    1          2          3          4          5
     1  C    0.000000
     2  C    1.521066   0.000000
     3  O    2.401756   1.424317   0.000000
     4  C    2.520358   1.521065   2.401756   0.000000
     5  H    1.095305   2.161589   2.647584   3.470049   0.000000
     6  H    1.095608   2.171008   2.679178   2.790288   1.757359
     7  H    1.094189   2.172441   3.359783   2.791650   1.778415
     8  H    2.150397   1.094932   2.039969   2.150397   2.488008
     9  H    2.567333   1.956312   0.972527   2.567334   2.920224
    10  H    3.470049   2.161589   2.647584   1.095306   4.301590
    11  H    2.790287   2.171007   2.679176   1.095608   3.785203
    12  H    2.791650   2.172441   3.359783   1.094189   3.797434
                    6          7          8          9         10
     6  H    0.000000
     7  H    1.778966   0.000000
     8  H    3.069284   2.510278   0.000000
     9  H    2.423171   3.574321   2.844217   0.000000
    10  H    3.785204   3.797434   2.488008   2.920225   0.000000
    11  H    2.612861   3.162732   3.069283   2.423170   1.757358
    12  H    3.162731   2.617112   2.510279   3.574322   1.778416
                   11         12
    11  H    0.000000
    12  H    1.778966   0.000000
 Stoichiometry    C3H8O
 Framework group  C1[X(C3H8O)]
 Deg. of freedom    30
 Full point group                 C1      NOp   1
 Largest Abelian subgroup         C1      NOp   1
 Largest concise Abelian subgroup C1      NOp   1
                         Standard orientation:                         
 ---------------------------------------------------------------------
 Center     Atomic      Atomic             Coordinates (Angstroms)
 Number     Number       Type             X           Y           Z
 ---------------------------------------------------------------------
      1          6           0       -1.260179   -0.652540    0.107152
      2          6           0        0.000000    0.030653   -0.401607
      3          8           0        0.000000    1.390312    0.022668
      4          6           0        1.260179   -0.652540    0.107152
      5          1           0       -2.150795   -0.128329   -0.255753
      6          1           0       -1.306431   -0.629953    1.201550
      7          1           0       -1.308556   -1.694335   -0.223864
      8          1           0        0.000001    0.028883   -1.496537
      9          1           0       -0.000001    1.400415    0.995143
     10          1           0        2.150795   -0.128327   -0.255751
     11          1           0        1.306430   -0.629951    1.201550
     12          1           0        1.308556   -1.694335   -0.223863
 ---------------------------------------------------------------------
 Rotational constants (GHZ):      8.6908404      8.0316993      4.8647473
 Leave Link  202 at Thu Mar 19 18:25:47 2026, MaxMem=   536870912 cpu:         0.0
 (Enter C:\G09W\l301.exe)
 Standard basis: 6-31G(d) (6D, 7F)
 Ernie: Thresh=  0.10000D-02 Tol=  0.10000D-05 Strict=F.
 There are    76 symmetry adapted cartesian basis functions of A   symmetry.
 There are    76 symmetry adapted basis functions of A   symmetry.
    76 basis functions,   144 primitive gaussians,    76 cartesian basis functions
    17 alpha electrons       17 beta electrons
       nuclear repulsion energy       135.0974530993 Hartrees.
 IExCor=  402 DFT=T Ex+Corr=B3LYP ExCW=0 ScaHFX=  0.200000
 ScaDFX=  0.800000  0.720000  1.000000  0.810000 ScalE2=  1.000000  1.000000
 IRadAn=      0 IRanWt=     -1 IRanGd=            0 ICorTp=0 IEmpDi=  4
 NAtoms=   12 NActive=   12 NUniq=   12 SFac= 1.00D+00 NAtFMM=   60 NAOKFM=F Big=F
 Integral buffers will be    131072 words long.
 Raffenetti 2 integral format.
 Two-electron integral symmetry is turned on.
 Leave Link  301 at Thu Mar 19 18:25:47 2026, MaxMem=   536870912 cpu:         0.0
 (Enter C:\G09W\l302.exe)
 NPDir=0 NMtPBC=     1 NCelOv=     1 NCel=       1 NClECP=     1 NCelD=      1
         NCelK=      1 NCelE2=     1 NClLst=     1 CellRange=     0.0.
 One-electron integrals computed using PRISM.
 NBasis=    76 RedAO= T EigKep=  4.29D-03  NBF=    76
 NBsUse=    76 1.00D-06 EigRej= -1.00D+00 NBFU=    76
 Precomputing XC quadrature grid using
 IXCGrd= 4 IRadAn=           0 IRanWt=          -1 IRanGd=           0 AccXCQ= 0.00D+00.
 Generated NRdTot=       0 NPtTot=           0 NUsed=           0 NTot=          32
 NSgBfM=    76    76    76    76    76 MxSgAt=    12 MxSgA2=    12.
 Leave Link  302 at Thu Mar 19 18:25:48 2026, MaxMem=   536870912 cpu:         1.0
 (Enter C:\G09W\l303.exe)
 DipDrv:  MaxL=1.
 Leave Link  303 at Thu Mar 19 18:25:48 2026, MaxMem=   536870912 cpu:         0.0
 (Enter C:\G09W\l401.exe)
 ExpMin= 1.61D-01 ExpMax= 5.48D+03 ExpMxC= 8.25D+02 IAcc=1 IRadAn=         1 AccDes= 0.00D+00
 Harris functional with IExCor=  402 and IRadAn=       1 diagonalized for initial guess.
 HarFok:  IExCor=  402 AccDes= 0.00D+00 IRadAn=         1 IDoV= 1 UseB2=F ITyADJ=14
 ICtDFT=  3500011 ScaDFX=  1.000000  1.000000  1.000000  1.000000
 FoFCou: FMM=F IPFlag=           0 FMFlag=      100000 FMFlg1=           0
         NFxFlg=           0 DoJE=T BraDBF=F KetDBF=T FulRan=T
         wScrn=  0.000000 ICntrl=     500 IOpCl=  0 I1Cent=   200000004 NGrid=           0
         NMat0=    1 NMatS0=      1 NMatT0=    0 NMatD0=    1 NMtDS0=    0 NMtDT0=    0
 Petite list used in FoFCou.
 Harris En= -194.410108555324    
 JPrj=0 DoOrth=F DoCkMO=F.
 Leave Link  401 at Thu Mar 19 18:25:48 2026, MaxMem=   536870912 cpu:         0.0
 (Enter C:\G09W\l502.exe)
 Closed shell SCF:
 Using DIIS extrapolation, IDIIS=  1040.
 Integral symmetry usage will be decided dynamically.
 Keep R1 ints in memory in canonical form, NReq=5217425.
 IVT=       36922 IEndB=       36922 NGot=   536870912 MDV=   532551790
 LenX=   532551790 LenY=   532545573
 Requested convergence on RMS density matrix=1.00D-08 within 128 cycles.
 Requested convergence on MAX density matrix=1.00D-06.
 Requested convergence on             energy=1.00D-06.
 No special actions if energy rises.
 FoFCou: FMM=F IPFlag=           0 FMFlag=           0 FMFlg1=           0
         NFxFlg=           0 DoJE=F BraDBF=F KetDBF=F FulRan=T
         wScrn=  0.000000 ICntrl=     600 IOpCl=  0 I1Cent=           0 NGrid=           0
         NMat0=    1 NMatS0=   2926 NMatT0=    0 NMatD0=    1 NMtDS0=    0 NMtDT0=    0
 Symmetry not used in FoFCou.
 Integral accuracy reduced to 1.0D-05 until final iterations.

 Cycle   1  Pass 0  IDiag  1:
 E= -194.173436387280    
 DIIS: error= 5.49D-02 at cycle   1 NSaved=   1.
 NSaved= 1 IEnMin= 1 EnMin= -194.173436387280     IErMin= 1 ErrMin= 5.49D-02
 ErrMax= 5.49D-02  0.00D+00 EMaxC= 1.00D-01 BMatC= 1.80D-01 BMatP= 1.80D-01
 IDIUse=3 WtCom= 4.51D-01 WtEn= 5.49D-01
 Coeff-Com:  0.100D+01
 Coeff-En:   0.100D+01
 Coeff:      0.100D+01
 Gap=     0.242 Goal=   None    Shift=    0.000
 GapD=    0.242 DampG=1.000 DampE=0.500 DampFc=0.5000 IDamp=-1.
 Damping current iteration by 5.00D-01
 RMSDP=1.18D-02 MaxDP=1.37D-01              OVMax= 1.76D-01

 Cycle   2  Pass 0  IDiag  1:
 E= -194.253097486653     Delta-E=       -0.079661099373 Rises=F Damp=T
 DIIS: error= 7.43D-03 at cycle   2 NSaved=   2.
 NSaved= 2 IEnMin= 2 EnMin= -194.253097486653     IErMin= 2 ErrMin= 7.43D-03
 ErrMax= 7.43D-03  0.00D+00 EMaxC= 1.00D-01 BMatC= 7.20D-03 BMatP= 1.80D-01
 IDIUse=3 WtCom= 9.26D-01 WtEn= 7.43D-02
 Coeff-Com:  0.889D-01 0.911D+00
 Coeff-En:   0.130D+00 0.870D+00
 Coeff:      0.920D-01 0.908D+00
 Gap=     0.335 Goal=   None    Shift=    0.000
 RMSDP=1.77D-03 MaxDP=1.78D-02 DE=-7.97D-02 OVMax= 9.05D-02

 Cycle   3  Pass 0  IDiag  1:
 E= -194.350722442501     Delta-E=       -0.097624955848 Rises=F Damp=F
 DIIS: error= 3.86D-03 at cycle   3 NSaved=   3.
 NSaved= 3 IEnMin= 3 EnMin= -194.350722442501     IErMin= 3 ErrMin= 3.86D-03
 ErrMax= 3.86D-03  0.00D+00 EMaxC= 1.00D-01 BMatC= 1.75D-03 BMatP= 7.20D-03
 IDIUse=3 WtCom= 9.61D-01 WtEn= 3.86D-02
 Coeff-Com:  0.165D-01 0.292D+00 0.691D+00
 Coeff-En:   0.000D+00 0.000D+00 0.100D+01
 Coeff:      0.159D-01 0.281D+00 0.703D+00
 Gap=     0.329 Goal=   None    Shift=    0.000
 RMSDP=7.51D-04 MaxDP=1.24D-02 DE=-9.76D-02 OVMax= 1.28D-02

 Cycle   4  Pass 0  IDiag  1:
 E= -194.351435503099     Delta-E=       -0.000713060598 Rises=F Damp=F
 DIIS: error= 2.50D-03 at cycle   4 NSaved=   4.
 NSaved= 4 IEnMin= 4 EnMin= -194.351435503099     IErMin= 4 ErrMin= 2.50D-03
 ErrMax= 2.50D-03  0.00D+00 EMaxC= 1.00D-01 BMatC= 8.56D-04 BMatP= 1.75D-03
 IDIUse=3 WtCom= 9.75D-01 WtEn= 2.50D-02
 Coeff-Com:  0.120D-02 0.424D-01 0.411D+00 0.545D+00
 Coeff-En:   0.000D+00 0.000D+00 0.340D+00 0.660D+00
 Coeff:      0.117D-02 0.413D-01 0.410D+00 0.548D+00
 Gap=     0.333 Goal=   None    Shift=    0.000
 RMSDP=3.33D-04 MaxDP=5.64D-03 DE=-7.13D-04 OVMax= 5.86D-03

 Cycle   5  Pass 0  IDiag  1:
 E= -194.352096315185     Delta-E=       -0.000660812087 Rises=F Damp=F
 DIIS: error= 3.07D-04 at cycle   5 NSaved=   5.
 NSaved= 5 IEnMin= 5 EnMin= -194.352096315185     IErMin= 5 ErrMin= 3.07D-04
 ErrMax= 3.07D-04  0.00D+00 EMaxC= 1.00D-01 BMatC= 1.26D-05 BMatP= 8.56D-04
 IDIUse=3 WtCom= 9.97D-01 WtEn= 3.07D-03
 Coeff-Com:  0.105D-03 0.463D-03 0.116D+00 0.201D+00 0.683D+00
 Coeff-En:   0.000D+00 0.000D+00 0.000D+00 0.000D+00 0.100D+01
 Coeff:      0.104D-03 0.462D-03 0.115D+00 0.200D+00 0.684D+00
 Gap=     0.332 Goal=   None    Shift=    0.000
 RMSDP=5.30D-05 MaxDP=6.48D-04 DE=-6.61D-04 OVMax= 9.04D-04

 Cycle   6  Pass 0  IDiag  1:
 E= -194.352106514469     Delta-E=       -0.000010199284 Rises=F Damp=F
 DIIS: error= 1.22D-04 at cycle   6 NSaved=   6.
 NSaved= 6 IEnMin= 6 EnMin= -194.352106514469     IErMin= 6 ErrMin= 1.22D-04
 ErrMax= 1.22D-04  0.00D+00 EMaxC= 1.00D-01 BMatC= 8.83D-07 BMatP= 1.26D-05
 IDIUse=3 WtCom= 9.99D-01 WtEn= 1.22D-03
 Coeff-Com:  0.154D-03-0.123D-02 0.411D-01 0.764D-01 0.323D+00 0.561D+00
 Coeff-En:   0.000D+00 0.000D+00 0.000D+00 0.000D+00 0.000D+00 0.100D+01
 Coeff:      0.154D-03-0.123D-02 0.411D-01 0.763D-01 0.323D+00 0.561D+00
 Gap=     0.332 Goal=   None    Shift=    0.000
 RMSDP=1.17D-05 MaxDP=2.61D-04 DE=-1.02D-05 OVMax= 2.08D-04

 Cycle   7  Pass 0  IDiag  1:
 E= -194.352107296085     Delta-E=       -0.000000781616 Rises=F Damp=F
 DIIS: error= 1.82D-05 at cycle   7 NSaved=   7.
 NSaved= 7 IEnMin= 7 EnMin= -194.352107296085     IErMin= 7 ErrMin= 1.82D-05
 ErrMax= 1.82D-05  0.00D+00 EMaxC= 1.00D-01 BMatC= 2.72D-08 BMatP= 8.83D-07
 IDIUse=1 WtCom= 1.00D+00 WtEn= 0.00D+00
 Coeff-Com:  0.881D-04-0.529D-03 0.887D-02 0.169D-01 0.805D-01 0.214D+00
 Coeff-Com:  0.680D+00
 Coeff:      0.881D-04-0.529D-03 0.887D-02 0.169D-01 0.805D-01 0.214D+00
 Coeff:      0.680D+00
 Gap=     0.332 Goal=   None    Shift=    0.000
 RMSDP=2.74D-06 MaxDP=3.50D-05 DE=-7.82D-07 OVMax= 4.02D-05

 Initial convergence to 1.0D-05 achieved.  Increase integral accuracy.
 Cycle   8  Pass 1  IDiag  1:
 E= -194.352126410964     Delta-E=       -0.000019114879 Rises=F Damp=F
 DIIS: error= 1.25D-05 at cycle   1 NSaved=   1.
 NSaved= 1 IEnMin= 1 EnMin= -194.352126410964     IErMin= 1 ErrMin= 1.25D-05
 ErrMax= 1.25D-05  0.00D+00 EMaxC= 1.00D-01 BMatC= 1.30D-08 BMatP= 1.30D-08
 IDIUse=1 WtCom= 1.00D+00 WtEn= 0.00D+00
 Coeff-Com:  0.100D+01
 Coeff:      0.100D+01
 Gap=     0.332 Goal=   None    Shift=    0.000
 RMSDP=2.74D-06 MaxDP=3.50D-05 DE=-1.91D-05 OVMax= 3.95D-05

 Cycle   9  Pass 1  IDiag  1:
 E= -194.352126427626     Delta-E=       -0.000000016662 Rises=F Damp=F
 DIIS: error= 2.82D-06 at cycle   2 NSaved=   2.
 NSaved= 2 IEnMin= 2 EnMin= -194.352126427626     IErMin= 2 ErrMin= 2.82D-06
 ErrMax= 2.82D-06  0.00D+00 EMaxC= 1.00D-01 BMatC= 9.82D-10 BMatP= 1.30D-08
 IDIUse=1 WtCom= 1.00D+00 WtEn= 0.00D+00
 Coeff-Com:  0.953D-01 0.905D+00
 Coeff:      0.953D-01 0.905D+00
 Gap=     0.332 Goal=   None    Shift=    0.000
 RMSDP=8.28D-07 MaxDP=8.66D-06 DE=-1.67D-08 OVMax= 1.24D-05

 Cycle  10  Pass 1  IDiag  1:
 E= -194.352126427914     Delta-E=       -0.000000000288 Rises=F Damp=F
 DIIS: error= 2.47D-06 at cycle   3 NSaved=   3.
 NSaved= 3 IEnMin= 3 EnMin= -194.352126427914     IErMin= 3 ErrMin= 2.47D-06
 ErrMax= 2.47D-06  0.00D+00 EMaxC= 1.00D-01 BMatC= 8.51D-10 BMatP= 9.82D-10
 IDIUse=1 WtCom= 1.00D+00 WtEn= 0.00D+00
 Coeff-Com: -0.163D-01 0.483D+00 0.534D+00
 Coeff:     -0.163D-01 0.483D+00 0.534D+00
 Gap=     0.332 Goal=   None    Shift=    0.000
 RMSDP=3.83D-07 MaxDP=5.74D-06 DE=-2.88D-10 OVMax= 6.39D-06

 Cycle  11  Pass 1  IDiag  1:
 E= -194.352126428600     Delta-E=       -0.000000000686 Rises=F Damp=F
 DIIS: error= 6.93D-07 at cycle   4 NSaved=   4.
 NSaved= 4 IEnMin= 4 EnMin= -194.352126428600     IErMin= 4 ErrMin= 6.93D-07
 ErrMax= 6.93D-07  0.00D+00 EMaxC= 1.00D-01 BMatC= 5.18D-11 BMatP= 8.51D-10
 IDIUse=1 WtCom= 1.00D+00 WtEn= 0.00D+00
 Coeff-Com: -0.131D-01 0.205D+00 0.284D+00 0.523D+00
 Coeff:     -0.131D-01 0.205D+00 0.284D+00 0.523D+00
 Gap=     0.332 Goal=   None    Shift=    0.000
 RMSDP=9.21D-08 MaxDP=1.52D-06 DE=-6.86D-10 OVMax= 1.58D-06

 Cycle  12  Pass 1  IDiag  1:
 E= -194.352126428642     Delta-E=       -0.000000000042 Rises=F Damp=F
 DIIS: error= 8.90D-08 at cycle   5 NSaved=   5.
 NSaved= 5 IEnMin= 5 EnMin= -194.352126428642     IErMin= 5 ErrMin= 8.90D-08
 ErrMax= 8.90D-08  0.00D+00 EMaxC= 1.00D-01 BMatC= 9.91D-13 BMatP= 5.18D-11
 IDIUse=1 WtCom= 1.00D+00 WtEn= 0.00D+00
 Coeff-Com: -0.484D-02 0.687D-01 0.987D-01 0.209D+00 0.629D+00
 Coeff:     -0.484D-02 0.687D-01 0.987D-01 0.209D+00 0.629D+00
 Gap=     0.332 Goal=   None    Shift=    0.000
 RMSDP=1.33D-08 MaxDP=1.95D-07 DE=-4.20D-11 OVMax= 2.11D-07

 Cycle  13  Pass 1  IDiag  1:
 E= -194.352126428644     Delta-E=       -0.000000000002 Rises=F Damp=F
 DIIS: error= 3.50D-08 at cycle   6 NSaved=   6.
 NSaved= 6 IEnMin= 6 EnMin= -194.352126428644     IErMin= 6 ErrMin= 3.50D-08
 ErrMax= 3.50D-08  0.00D+00 EMaxC= 1.00D-01 BMatC= 1.02D-13 BMatP= 9.91D-13
 IDIUse=1 WtCom= 1.00D+00 WtEn= 0.00D+00
 Coeff-Com: -0.508D-03 0.455D-02 0.721D-02 0.210D-01 0.257D+00 0.711D+00
 Coeff:     -0.508D-03 0.455D-02 0.721D-02 0.210D-01 0.257D+00 0.711D+00
 Gap=     0.332 Goal=   None    Shift=    0.000
 RMSDP=3.63D-09 MaxDP=5.32D-08 DE=-2.39D-12 OVMax= 6.38D-08

 SCF Done:  E(RB3LYP) =  -194.352126429     A.U. after   13 cycles
            NFock= 13  Conv=0.36D-08     -V/T= 2.0091
 KE= 1.925984878686D+02 PE=-7.228403195315D+02 EE= 2.007922521350D+02
 Leave Link  502 at Thu Mar 19 18:25:53 2026, MaxMem=   536870912 cpu:         4.0
 (Enter C:\G09W\l601.exe)
 Copying SCF densities to generalized density rwf, IOpCl= 0 IROHF=0.

 **********************************************************************

            Population analysis using the SCF density.

 **********************************************************************

 Orbital symmetries:
       Occupied  (A) (A) (A) (A) (A) (A) (A) (A) (A) (A) (A) (A)
                 (A) (A) (A) (A) (A)
       Virtual   (A) (A) (A) (A) (A) (A) (A) (A) (A) (A) (A) (A)
                 (A) (A) (A) (A) (A) (A) (A) (A) (A) (A) (A) (A)
                 (A) (A) (A) (A) (A) (A) (A) (A) (A) (A) (A) (A)
                 (A) (A) (A) (A) (A) (A) (A) (A) (A) (A) (A) (A)
                 (A) (A) (A) (A) (A) (A) (A) (A) (A) (A) (A)
 The electronic state is 1-A.
 Alpha  occ. eigenvalues --  -19.13352 -10.23184 -10.17338 -10.17337  -1.01007
 Alpha  occ. eigenvalues --   -0.76681  -0.68861  -0.59825  -0.47615  -0.46703
 Alpha  occ. eigenvalues --   -0.42357  -0.40758  -0.39082  -0.35833  -0.35160
 Alpha  occ. eigenvalues --   -0.31348  -0.25886
 Alpha virt. eigenvalues --    0.07351   0.11661   0.13541   0.15164   0.15483
 Alpha virt. eigenvalues --    0.17536   0.19013   0.19528   0.23359   0.24502
 Alpha virt. eigenvalues --    0.26430   0.50537   0.53048   0.55617   0.58863
 Alpha virt. eigenvalues --    0.59041   0.64290   0.70982   0.71238   0.76316
 Alpha virt. eigenvalues --    0.83407   0.86216   0.88622   0.89511   0.90804
 Alpha virt. eigenvalues --    0.91479   0.94567   0.97070   0.98098   1.01791
 Alpha virt. eigenvalues --    1.05774   1.13760   1.34696   1.41975   1.42007
 Alpha virt. eigenvalues --    1.56743   1.64005   1.74363   1.77875   1.80805
 Alpha virt. eigenvalues --    1.87527   1.96897   1.98051   2.07014   2.13615
 Alpha virt. eigenvalues --    2.19001   2.22966   2.25245   2.27929   2.35476
 Alpha virt. eigenvalues --    2.52335   2.54335   2.60230   2.72575   2.86181
 Alpha virt. eigenvalues --    3.75407   4.17838   4.28441   4.50635
          Condensed to atoms (all electrons):
               1          2          3          4          5          6
     1  C    5.181837   0.371560  -0.053860  -0.065187   0.369177   0.364315
     2  C    0.371560   4.647158   0.269165   0.371560  -0.027843  -0.029263
     3  O   -0.053860   0.269165   8.256935  -0.053860   0.002452  -0.002648
     4  C   -0.065187   0.371560  -0.053860   5.181837   0.006172  -0.008464
     5  H    0.369177  -0.027843   0.002452   0.006172   0.559075  -0.033699
     6  H    0.364315  -0.029263  -0.002648  -0.008464  -0.033699   0.590620
     7  H    0.342806  -0.023951   0.004045   0.000575  -0.026146  -0.027579
     8  H   -0.054679   0.390021  -0.039946  -0.054679  -0.004794   0.005672
     9  H   -0.006965  -0.027803   0.230981  -0.006965  -0.000691   0.006527
    10  H    0.006172  -0.027843   0.002452   0.369177  -0.000201  -0.000070
    11  H   -0.008464  -0.029264  -0.002648   0.364315  -0.000070   0.005364
    12  H    0.000575  -0.023951   0.004045   0.342806  -0.000148   0.000171
               7          8          9         10         11         12
     1  C    0.342806  -0.054679  -0.006965   0.006172  -0.008464   0.000575
     2  C   -0.023951   0.390021  -0.027803  -0.027843  -0.029264  -0.023951
     3  O    0.004045  -0.039946   0.230981   0.002452  -0.002648   0.004045
     4  C    0.000575  -0.054679  -0.006965   0.369177   0.364315   0.342806
     5  H   -0.026146  -0.004794  -0.000691  -0.000201  -0.000070  -0.000148
     6  H   -0.027579   0.005672   0.006527  -0.000070   0.005364   0.000171
     7  H    0.590754  -0.000144  -0.000091  -0.000148   0.000171   0.000289
     8  H   -0.000144   0.609768   0.007891  -0.004794   0.005672  -0.000144
     9  H   -0.000091   0.007891   0.410671  -0.000691   0.006527  -0.000091
    10  H   -0.000148  -0.004794  -0.000691   0.559075  -0.033699  -0.026146
    11  H    0.000171   0.005672   0.006527  -0.033699   0.590621  -0.027579
    12  H    0.000289  -0.000144  -0.000091  -0.026146  -0.027579   0.590753
 Mulliken charges:
               1
     1  C   -0.447286
     2  C    0.140451
     3  O   -0.617115
     4  C   -0.447286
     5  H    0.156716
     6  H    0.129055
     7  H    0.139421
     8  H    0.140154
     9  H    0.380700
    10  H    0.156716
    11  H    0.129054
    12  H    0.139421
 Sum of Mulliken charges =   0.00000
 Mulliken charges with hydrogens summed into heavy atoms:
               1
     1  C   -0.022095
     2  C    0.280605
     3  O   -0.236415
     4  C   -0.022095
 Electronic spatial extent (au):  <R**2>=            315.3778
 Charge=              0.0000 electrons
 Dipole moment (field-independent basis, Debye):
    X=              0.0000    Y=             -1.2676    Z=              0.9487  Tot=              1.5833
 Quadrupole moment (field-independent basis, Debye-Ang):
   XX=            -26.7228   YY=            -29.0303   ZZ=            -23.9845
   XY=              0.0000   XZ=              0.0000   YZ=              2.4188
 Traceless Quadrupole moment (field-independent basis, Debye-Ang):
   XX=             -0.1436   YY=             -2.4511   ZZ=              2.5946
   XY=              0.0000   XZ=              0.0000   YZ=              2.4188
 Octapole moment (field-independent basis, Debye-Ang**2):
  XXX=              0.0000  YYY=              1.0778  ZZZ=              2.1069  XYY=              0.0000
  XXY=              2.7476  XXZ=             -0.6086  XZZ=              0.0000  YZZ=              4.9019
  YYZ=              3.0100  XYZ=              0.0000
 Hexadecapole moment (field-independent basis, Debye-Ang**3):
 XXXX=           -197.5094 YYYY=           -155.5899 ZZZZ=            -52.9324 XXXY=              0.0000
 XXXZ=              0.0000 YYYX=              0.0000 YYYZ=              9.0688 ZZZX=              0.0000
 ZZZY=              3.5868 XXYY=            -60.4980 XXZZ=            -43.0738 YYZZ=            -31.7220
 XXYZ=              0.4291 YYXZ=              0.0000 ZZXY=              0.0000
 N-N= 1.350974530993D+02 E-N=-7.228403216610D+02  KE= 1.925984878686D+02
 No NMR shielding tensors so no spin-rotation constants.
 Leave Link  601 at Thu Mar 19 18:25:54 2026, MaxMem=   536870912 cpu:         0.0
 (Enter C:\G09W\l701.exe)
 Compute integral first derivatives.
 ... and contract with generalized density number  0.
 Leave Link  701 at Thu Mar 19 18:25:54 2026, MaxMem=   536870912 cpu:         0.0
 (Enter C:\G09W\l702.exe)
 L702 exits ... SP integral derivatives will be done elsewhere.
 Leave Link  702 at Thu Mar 19 18:25:54 2026, MaxMem=   536870912 cpu:         0.0
 (Enter C:\G09W\l703.exe)
 Compute integral first derivatives, UseDBF=F ICtDFT=           0.
 Integral derivatives from FoFJK, PRISM(SPDF).
 Calling FoFJK, ICntrl=      2127 FMM=F ISym2X=0 I1Cent= 0 IOpClX= 0 NMat=1 NMatS=1 NMatT=0.
 FoFJK:  IHMeth= 1 ICntrl=    2127 DoSepK=F KAlg= 0 I1Cent=   0 FoldK=F
 IRaf=         0 NMat=   1 IRICut=       1 DoRegI=T DoRafI=F ISym2E= 0.
 FoFCou: FMM=F IPFlag=           0 FMFlag=      100000 FMFlg1=         800
         NFxFlg=           0 DoJE=F BraDBF=F KetDBF=F FulRan=T
         wScrn=  0.000000 ICntrl=    2127 IOpCl=  0 I1Cent=           0 NGrid=           0
         NMat0=    1 NMatS0=      1 NMatT0=    0 NMatD0=    1 NMtDS0=    0 NMtDT0=    0
 Symmetry not used in FoFCou.
 Leave Link  703 at Thu Mar 19 18:25:56 2026, MaxMem=   536870912 cpu:         1.0
 (Enter C:\G09W\l716.exe)
 Dipole        =-1.86986449D-07-4.98730412D-01 3.73238265D-01
 ***** Axes restored to original set *****
 -------------------------------------------------------------------
 Center     Atomic                   Forces (Hartrees/Bohr)
 Number     Number              X              Y              Z
 -------------------------------------------------------------------
      1        6          -0.005364828   -0.001716763   -0.006423643
      2        6          -0.003665837   -0.004522471    0.014377323
      3        8          -0.000169650    0.011793408   -0.004690150
      4        6           0.008198968    0.000078680   -0.002400223
      5        1           0.000515995   -0.000101420   -0.001386881
      6        1           0.001976795   -0.001879529    0.002197644
      7        1          -0.001157641   -0.002256579    0.000172687
      8        1          -0.000811296    0.004807139    0.000590233
      9        1           0.001070942   -0.001709311   -0.002848136
     10        1           0.000350846   -0.000123446   -0.001435983
     11        1          -0.002328724   -0.002449447    0.000920633
     12        1           0.001384430   -0.001920261    0.000926495
 -------------------------------------------------------------------
 Cartesian Forces:  Max     0.014377323 RMS     0.004169507
 Leave Link  716 at Thu Mar 19 18:25:56 2026, MaxMem=   536870912 cpu:         0.0
 (Enter C:\G09W\l103.exe)

 GradGradGradGradGradGradGradGradGradGradGradGradGradGradGradGradGradGrad
 Berny optimization.
 FormGI is forming the generalized inverse of G from B-inverse, IUseBI=4.
 Internal  Forces:  Max     0.006826027 RMS     0.002570589
 Search for a local minimum.
 Step number   1 out of a maximum of   61
 All quantities printed in internal units (Hartrees-Bohrs-Radians)
 RMS Force = .25706D-02 SwitMx=.10000D-02 MixMth= 1
 Mixed Optimization -- RFO/linear search
 Second derivative matrix not updated -- first step.
 ITU=  0
     Eigenvalues ---    0.00487   0.00487   0.01370   0.04388   0.04946
     Eigenvalues ---    0.05530   0.05530   0.05708   0.05708   0.07437
     Eigenvalues ---    0.16000   0.16000   0.16000   0.16000   0.16000
     Eigenvalues ---    0.16000   0.16000   0.16686   0.19746   0.30264
     Eigenvalues ---    0.30264   0.34172   0.34172   0.34207   0.34207
     Eigenvalues ---    0.34249   0.34333   0.34333   0.41817   0.52864
 RFO step:  Lambda=-3.30130998D-03 EMin= 4.87289705D-03
 Linear search not attempted -- first point.
 Iteration  1 RMS(Cart)=  0.03652461 RMS(Int)=  0.00088072
 Iteration  2 RMS(Cart)=  0.00106360 RMS(Int)=  0.00058028
 Iteration  3 RMS(Cart)=  0.00000028 RMS(Int)=  0.00058028
 ITry= 1 IFail=0 DXMaxC= 1.32D-01 DCOld= 1.00D+10 DXMaxT= 3.00D-01 DXLimC= 3.00D+00 Rises=F
 Variable       Old X    -DE/DX   Delta X   Delta X   Delta X     New X
                                 (Linear)    (Quad)   (Total)
    R1        2.87440   0.00683   0.00000   0.02231   0.02231   2.89671
    R2        2.06983   0.00019   0.00000   0.00054   0.00054   2.07037
    R3        2.07040   0.00186   0.00000   0.00538   0.00538   2.07578
    R4        2.06772   0.00162   0.00000   0.00467   0.00467   2.07239
    R5        2.69157   0.00502   0.00000   0.01191   0.01191   2.70348
    R6        2.87440   0.00683   0.00000   0.02231   0.02231   2.89671
    R7        2.06912   0.00030   0.00000   0.00086   0.00086   2.06998
    R8        1.83781  -0.00260   0.00000  -0.00488  -0.00488   1.83293
    R9        2.06983   0.00019   0.00000   0.00054   0.00054   2.07037
   R10        2.07040   0.00186   0.00000   0.00538   0.00538   2.07578
   R11        2.06772   0.00162   0.00000   0.00467   0.00467   2.07239
    A1        1.92610  -0.00038   0.00000   0.00207   0.00206   1.92816
    A2        1.93887  -0.00205   0.00000  -0.01361  -0.01359   1.92528
    A3        1.94238   0.00260   0.00000   0.01250   0.01248   1.95486
    A4        1.86165   0.00203   0.00000   0.01914   0.01917   1.88082
    A5        1.89600  -0.00096   0.00000  -0.00403  -0.00406   1.89193
    A6        1.89647  -0.00127   0.00000  -0.01597  -0.01596   1.88051
    A7        1.90618   0.00315   0.00000   0.04326   0.04127   1.94745
    A8        1.95279  -0.00141   0.00000   0.01918   0.01709   1.96988
    A9        1.91107  -0.00003   0.00000  -0.01626  -0.01560   1.89547
   A10        1.90618   0.00315   0.00000   0.04326   0.04127   1.94745
   A11        1.87488  -0.00497   0.00000  -0.07692  -0.07606   1.79882
   A12        1.91107  -0.00003   0.00000  -0.01626  -0.01560   1.89547
   A13        1.88366  -0.00428   0.00000  -0.02622  -0.02622   1.85744
   A14        1.92610  -0.00038   0.00000   0.00207   0.00206   1.92816
   A15        1.93887  -0.00205   0.00000  -0.01361  -0.01359   1.92528
   A16        1.94238   0.00260   0.00000   0.01250   0.01248   1.95486
   A17        1.86165   0.00203   0.00000   0.01915   0.01917   1.88082
   A18        1.89600  -0.00096   0.00000  -0.00403  -0.00407   1.89193
   A19        1.89647  -0.00127   0.00000  -0.01597  -0.01596   1.88051
    D1        1.00758  -0.00302   0.00000  -0.07065  -0.07100   0.93658
    D2        3.12014   0.00217   0.00000   0.02556   0.02583  -3.13721
    D3       -1.04096   0.00118   0.00000   0.00650   0.00653  -1.03444
    D4       -1.05356  -0.00401   0.00000  -0.08720  -0.08753  -1.14108
    D5        1.05900   0.00118   0.00000   0.00901   0.00930   1.06831
    D6       -3.10210   0.00018   0.00000  -0.01005  -0.01001  -3.11211
    D7        3.11395  -0.00276   0.00000  -0.06606  -0.06637   3.04758
    D8       -1.05667   0.00242   0.00000   0.03016   0.03046  -1.02622
    D9        1.06541   0.00143   0.00000   0.01109   0.01115   1.07655
   D10        1.07035   0.00113   0.00000   0.03942   0.04044   1.11079
   D11       -1.07035  -0.00113   0.00000  -0.03942  -0.04044  -1.11079
   D12        3.14159   0.00000   0.00000   0.00000   0.00000   3.14159
   D13       -3.12014  -0.00217   0.00000  -0.02556  -0.02583   3.13721
   D14       -1.05901  -0.00118   0.00000  -0.00901  -0.00930  -1.06831
   D15        1.05667  -0.00242   0.00000  -0.03016  -0.03046   1.02622
   D16       -1.00758   0.00302   0.00000   0.07065   0.07100  -0.93658
   D17        1.05355   0.00401   0.00000   0.08720   0.08753   1.14108
   D18       -3.11395   0.00276   0.00000   0.06606   0.06637  -3.04758
   D19        1.04097  -0.00118   0.00000  -0.00650  -0.00653   1.03444
   D20        3.10210  -0.00018   0.00000   0.01005   0.01001   3.11211
   D21       -1.06541  -0.00143   0.00000  -0.01109  -0.01115  -1.07656
         Item               Value     Threshold  Converged?
 Maximum Force            0.006826     0.000450     NO 
 RMS     Force            0.002571     0.000300     NO 
 Maximum Displacement     0.132430     0.001800     NO 
 RMS     Displacement     0.036119     0.001200     NO 
 Predicted change in Energy=-1.803833D-03
 Lowest energy point so far.  Saving SCF results.
 GradGradGradGradGradGradGradGradGradGradGradGradGradGradGradGradGradGrad

 Leave Link  103 at Thu Mar 19 18:25:56 2026, MaxMem=   536870912 cpu:         0.0
 (Enter C:\G09W\l202.exe)
                          Input orientation:                          
 ---------------------------------------------------------------------
 Center     Atomic      Atomic             Coordinates (Angstroms)
 Number     Number       Type             X           Y           Z
 ---------------------------------------------------------------------
      1          6           0       -1.156967   -0.541761   -0.385241
      2          6           0        0.049899    0.402579   -0.347879
      3          8           0       -0.288796    1.666690    0.230028
      4          6           0        1.272609   -0.220226    0.335342
      5          1           0       -2.005046   -0.060249   -0.884471
      6          1           0       -1.471139   -0.799535    0.635277
      7          1           0       -0.930867   -1.476893   -0.911619
      8          1           0        0.320227    0.664995   -1.376434
      9          1           0       -0.538312    1.489425    1.150412
     10          1           0        2.111439    0.484535    0.336429
     11          1           0        1.040959   -0.467079    1.380336
     12          1           0        1.595996   -1.142483   -0.162181
 ---------------------------------------------------------------------
                    Distance matrix (angstroms):
                    1          2          3          4          5
     1  C    0.000000
     2  C    1.532872   0.000000
     3  O    2.451434   1.430618   0.000000
     4  C    2.554498   1.532872   2.451434   0.000000
     5  H    1.095593   2.173693   2.677675   3.500937   0.000000
     6  H    1.098458   2.173759   2.764856   2.820232   1.772354
     7  H    1.096662   2.193654   3.405544   2.826558   1.778055
     8  H    2.149611   1.095384   1.988724   2.149611   2.484935
     9  H    2.620435   1.942190   0.969942   2.620435   2.948482
    10  H    3.500937   2.173693   2.677674   1.095593   4.328145
    11  H    2.820233   2.173759   2.764856   1.098458   3.817461
    12  H    2.826558   2.193654   3.405544   1.096662   3.828896
                    6          7          8          9         10
     6  H    0.000000
     7  H    1.773019   0.000000
     8  H    3.066076   2.523683   0.000000
     9  H    2.524850   3.633885   2.793157   0.000000
    10  H    3.817461   3.828896   2.484936   2.948483   0.000000
    11  H    2.641263   3.187613   3.066077   2.524850   1.772353
    12  H    3.187612   2.656789   2.523683   3.633884   1.778055
                   11         12
    11  H    0.000000
    12  H    1.773019   0.000000
 Stoichiometry    C3H8O
 Framework group  C1[X(C3H8O)]
 Deg. of freedom    30
 Full point group                 C1      NOp   1
 RotChk:  IX=0 Diff= 3.55D-02
 Largest Abelian subgroup         C1      NOp   1
 Largest concise Abelian subgroup C1      NOp   1
                         Standard orientation:                         
 ---------------------------------------------------------------------
 Center     Atomic      Atomic             Coordinates (Angstroms)
 Number     Number       Type             X           Y           Z
 ---------------------------------------------------------------------
      1          6           0       -1.277249   -0.671079    0.095389
      2          6           0        0.000000    0.042084   -0.362574
      3          8           0        0.000001    1.420040    0.022011
      4          6           0        1.277249   -0.671080    0.095389
      5          1           0       -2.164072   -0.132196   -0.256001
      6          1           0       -1.320632   -0.708495    1.192351
      7          1           0       -1.328395   -1.701497   -0.276486
      8          1           0        0.000000    0.090426   -1.456890
      9          1           0        0.000000    1.434074    0.991852
     10          1           0        2.164072   -0.132198   -0.256001
     11          1           0        1.320632   -0.708495    1.192351
     12          1           0        1.328394   -1.701498   -0.276485
 ---------------------------------------------------------------------
 Rotational constants (GHZ):      8.4350444      7.9297708      4.7006781
 Leave Link  202 at Thu Mar 19 18:25:56 2026, MaxMem=   536870912 cpu:         0.0
 (Enter C:\G09W\l301.exe)
 Standard basis: 6-31G(d) (6D, 7F)
 Ernie: Thresh=  0.10000D-02 Tol=  0.10000D-05 Strict=F.
 There are    76 symmetry adapted cartesian basis functions of A   symmetry.
 There are    76 symmetry adapted basis functions of A   symmetry.
    76 basis functions,   144 primitive gaussians,    76 cartesian basis functions
    17 alpha electrons       17 beta electrons
       nuclear repulsion energy       133.9687845451 Hartrees.
 IExCor=  402 DFT=T Ex+Corr=B3LYP ExCW=0 ScaHFX=  0.200000
 ScaDFX=  0.800000  0.720000  1.000000  0.810000 ScalE2=  1.000000  1.000000
 IRadAn=      0 IRanWt=     -1 IRanGd=            0 ICorTp=0 IEmpDi=  4
 NAtoms=   12 NActive=   12 NUniq=   12 SFac= 1.00D+00 NAtFMM=   60 NAOKFM=F Big=F
 Integral buffers will be    131072 words long.
 Raffenetti 2 integral format.
 Two-electron integral symmetry is turned on.
 Leave Link  301 at Thu Mar 19 18:25:57 2026, MaxMem=   536870912 cpu:         0.0
 (Enter C:\G09W\l302.exe)
 NPDir=0 NMtPBC=     1 NCelOv=     1 NCel=       1 NClECP=     1 NCelD=      1
         NCelK=      1 NCelE2=     1 NClLst=     1 CellRange=     0.0.
 One-electron integrals computed using PRISM.
 NBasis=    76 RedAO= T EigKep=  4.59D-03  NBF=    76
 NBsUse=    76 1.00D-06 EigRej= -1.00D+00 NBFU=    76
 Precomputing XC quadrature grid using
 IXCGrd= 4 IRadAn=           0 IRanWt=          -1 IRanGd=           0 AccXCQ= 0.00D+00.
 Generated NRdTot=       0 NPtTot=           0 NUsed=           0 NTot=          32
 NSgBfM=    76    76    76    76    76 MxSgAt=    12 MxSgA2=    12.
 Leave Link  302 at Thu Mar 19 18:25:57 2026, MaxMem=   536870912 cpu:         0.0
 (Enter C:\G09W\l303.exe)
 DipDrv:  MaxL=1.
 Leave Link  303 at Thu Mar 19 18:25:57 2026, MaxMem=   536870912 cpu:         0.0
 (Enter C:\G09W\l401.exe)
 Initial guess from the checkpoint file:  "2-propanol_rdkit.chk"
 B after Tr=     0.000000    0.000000    0.000000
         Rot=    0.999971   -0.007647    0.000000    0.000000 Ang=  -0.88 deg.
 Guess basis will be translated and rotated to current coordinates.
 JPrj=2 DoOrth=T DoCkMO=T.
 Generating alternative initial guess.
 ExpMin= 1.61D-01 ExpMax= 5.48D+03 ExpMxC= 8.25D+02 IAcc=1 IRadAn=         1 AccDes= 0.00D+00
 Harris functional with IExCor=  402 and IRadAn=       1 diagonalized for initial guess.
 HarFok:  IExCor=  402 AccDes= 0.00D+00 IRadAn=         1 IDoV= 1 UseB2=F ITyADJ=14
 ICtDFT=  3500011 ScaDFX=  1.000000  1.000000  1.000000  1.000000
 FoFCou: FMM=F IPFlag=           0 FMFlag=      100000 FMFlg1=           0
         NFxFlg=           0 DoJE=T BraDBF=F KetDBF=T FulRan=T
         wScrn=  0.000000 ICntrl=     500 IOpCl=  0 I1Cent=   200000004 NGrid=           0
         NMat0=    1 NMatS0=      1 NMatT0=    0 NMatD0=    1 NMtDS0=    0 NMtDT0=    0
 Petite list used in FoFCou.
 Harris En= -194.408791904077    
 Leave Link  401 at Thu Mar 19 18:25:57 2026, MaxMem=   536870912 cpu:         0.0
 (Enter C:\G09W\l502.exe)
 Closed shell SCF:
 Using DIIS extrapolation, IDIIS=  1040.
 Integral symmetry usage will be decided dynamically.
 Keep R1 ints in memory in canonical form, NReq=5217425.
 IVT=       36922 IEndB=       36922 NGot=   536870912 MDV=   532551790
 LenX=   532551790 LenY=   532545573
 Requested convergence on RMS density matrix=1.00D-08 within 128 cycles.
 Requested convergence on MAX density matrix=1.00D-06.
 Requested convergence on             energy=1.00D-06.
 No special actions if energy rises.
 FoFCou: FMM=F IPFlag=           0 FMFlag=           0 FMFlg1=           0
         NFxFlg=           0 DoJE=F BraDBF=F KetDBF=F FulRan=T
         wScrn=  0.000000 ICntrl=     600 IOpCl=  0 I1Cent=           0 NGrid=           0
         NMat0=    1 NMatS0=   2926 NMatT0=    0 NMatD0=    1 NMtDS0=    0 NMtDT0=    0
 Symmetry not used in FoFCou.
 Integral accuracy reduced to 1.0D-05 until final iterations.

 Cycle   1  Pass 0  IDiag  1:
 E= -194.351940847985    
 DIIS: error= 2.53D-03 at cycle   1 NSaved=   1.
 NSaved= 1 IEnMin= 1 EnMin= -194.351940847985     IErMin= 1 ErrMin= 2.53D-03
 ErrMax= 2.53D-03  0.00D+00 EMaxC= 1.00D-01 BMatC= 7.48D-04 BMatP= 7.48D-04
 IDIUse=3 WtCom= 9.75D-01 WtEn= 2.53D-02
 Coeff-Com:  0.100D+01
 Coeff-En:   0.100D+01
 Coeff:      0.100D+01
 Gap=     1.598 Goal=   None    Shift=    0.000
 GapD=    1.598 DampG=2.000 DampE=1.000 DampFc=2.0000 IDamp=-1.
 RMSDP=6.05D-04 MaxDP=7.46D-03              OVMax= 1.02D-02

 Cycle   2  Pass 0  IDiag  1:
 E= -194.353286968769     Delta-E=       -0.001346120784 Rises=F Damp=F
 DIIS: error= 4.01D-04 at cycle   2 NSaved=   2.
 NSaved= 2 IEnMin= 2 EnMin= -194.353286968769     IErMin= 2 ErrMin= 4.01D-04
 ErrMax= 4.01D-04  0.00D+00 EMaxC= 1.00D-01 BMatC= 1.73D-05 BMatP= 7.48D-04
 IDIUse=3 WtCom= 9.96D-01 WtEn= 4.01D-03
 Coeff-Com: -0.359D-01 0.104D+01
 Coeff-En:   0.000D+00 0.100D+01
 Coeff:     -0.358D-01 0.104D+01
 Gap=     0.335 Goal=   None    Shift=    0.000
 RMSDP=1.19D-04 MaxDP=1.72D-03 DE=-1.35D-03 OVMax= 2.15D-03

 Cycle   3  Pass 0  IDiag  1:
 E= -194.353286016210     Delta-E=        0.000000952558 Rises=F Damp=F
 DIIS: error= 5.05D-04 at cycle   3 NSaved=   3.
 NSaved= 3 IEnMin= 2 EnMin= -194.353286968769     IErMin= 2 ErrMin= 4.01D-04
 ErrMax= 5.05D-04  0.00D+00 EMaxC= 1.00D-01 BMatC= 2.82D-05 BMatP= 1.73D-05
 IDIUse=3 WtCom= 3.08D-01 WtEn= 6.92D-01
 Coeff-Com: -0.446D-01 0.605D+00 0.440D+00
 Coeff-En:   0.000D+00 0.513D+00 0.487D+00
 Coeff:     -0.137D-01 0.541D+00 0.473D+00
 Gap=     0.336 Goal=   None    Shift=    0.000
 RMSDP=6.50D-05 MaxDP=1.12D-03 DE= 9.53D-07 OVMax= 1.22D-03

 Cycle   4  Pass 0  IDiag  1:
 E= -194.353308879653     Delta-E=       -0.000022863442 Rises=F Damp=F
 DIIS: error= 1.17D-04 at cycle   4 NSaved=   4.
 NSaved= 4 IEnMin= 4 EnMin= -194.353308879653     IErMin= 4 ErrMin= 1.17D-04
 ErrMax= 1.17D-04  0.00D+00 EMaxC= 1.00D-01 BMatC= 1.28D-06 BMatP= 1.73D-05
 IDIUse=3 WtCom= 9.99D-01 WtEn= 1.17D-03
 Coeff-Com: -0.150D-01 0.163D+00 0.231D+00 0.622D+00
 Coeff-En:   0.000D+00 0.000D+00 0.000D+00 0.100D+01
 Coeff:     -0.150D-01 0.162D+00 0.230D+00 0.622D+00
 Gap=     0.336 Goal=   None    Shift=    0.000
 RMSDP=1.30D-05 MaxDP=2.89D-04 DE=-2.29D-05 OVMax= 2.28D-04

 Cycle   5  Pass 0  IDiag  1:
 E= -194.353309780349     Delta-E=       -0.000000900697 Rises=F Damp=F
 DIIS: error= 2.74D-05 at cycle   5 NSaved=   5.
 NSaved= 5 IEnMin= 5 EnMin= -194.353309780349     IErMin= 5 ErrMin= 2.74D-05
 ErrMax= 2.74D-05  0.00D+00 EMaxC= 1.00D-01 BMatC= 7.03D-08 BMatP= 1.28D-06
 IDIUse=1 WtCom= 1.00D+00 WtEn= 0.00D+00
 Coeff-Com: -0.236D-02 0.131D-01 0.666D-01 0.314D+00 0.608D+00
 Coeff:     -0.236D-02 0.131D-01 0.666D-01 0.314D+00 0.608D+00
 Gap=     0.336 Goal=   None    Shift=    0.000
 RMSDP=3.93D-06 MaxDP=5.51D-05 DE=-9.01D-07 OVMax= 6.30D-05

 Initial convergence to 1.0D-05 achieved.  Increase integral accuracy.
 Cycle   6  Pass 1  IDiag  1:
 E= -194.353308781314     Delta-E=        0.000000999035 Rises=F Damp=F
 DIIS: error= 1.29D-05 at cycle   1 NSaved=   1.
 NSaved= 1 IEnMin= 1 EnMin= -194.353308781314     IErMin= 1 ErrMin= 1.29D-05
 ErrMax= 1.29D-05  0.00D+00 EMaxC= 1.00D-01 BMatC= 2.17D-08 BMatP= 2.17D-08
 IDIUse=1 WtCom= 1.00D+00 WtEn= 0.00D+00
 Coeff-Com:  0.100D+01
 Coeff:      0.100D+01
 Gap=     0.336 Goal=   None    Shift=    0.000
 RMSDP=3.93D-06 MaxDP=5.51D-05 DE= 9.99D-07 OVMax= 5.10D-05

 Cycle   7  Pass 1  IDiag  1:
 E= -194.353308809895     Delta-E=       -0.000000028581 Rises=F Damp=F
 DIIS: error= 6.13D-06 at cycle   2 NSaved=   2.
 NSaved= 2 IEnMin= 2 EnMin= -194.353308809895     IErMin= 2 ErrMin= 6.13D-06
 ErrMax= 6.13D-06  0.00D+00 EMaxC= 1.00D-01 BMatC= 3.53D-09 BMatP= 2.17D-08
 IDIUse=1 WtCom= 1.00D+00 WtEn= 0.00D+00
 Coeff-Com:  0.185D+00 0.815D+00
 Coeff:      0.185D+00 0.815D+00
 Gap=     0.336 Goal=   None    Shift=    0.000
 RMSDP=1.52D-06 MaxDP=2.13D-05 DE=-2.86D-08 OVMax= 2.40D-05

 Cycle   8  Pass 1  IDiag  1:
 E= -194.353308810618     Delta-E=       -0.000000000722 Rises=F Damp=F
 DIIS: error= 5.89D-06 at cycle   3 NSaved=   3.
 NSaved= 3 IEnMin= 3 EnMin= -194.353308810618     IErMin= 3 ErrMin= 5.89D-06
 ErrMax= 5.89D-06  0.00D+00 EMaxC= 1.00D-01 BMatC= 3.18D-09 BMatP= 3.53D-09
 IDIUse=1 WtCom= 1.00D+00 WtEn= 0.00D+00
 Coeff-Com: -0.144D-01 0.488D+00 0.526D+00
 Coeff:     -0.144D-01 0.488D+00 0.526D+00
 Gap=     0.336 Goal=   None    Shift=    0.000
 RMSDP=6.75D-07 MaxDP=1.28D-05 DE=-7.22D-10 OVMax= 1.26D-05

 Cycle   9  Pass 1  IDiag  1:
 E= -194.353308812996     Delta-E=       -0.000000002379 Rises=F Damp=F
 DIIS: error= 8.08D-07 at cycle   4 NSaved=   4.
 NSaved= 4 IEnMin= 4 EnMin= -194.353308812996     IErMin= 4 ErrMin= 8.08D-07
 ErrMax= 8.08D-07  0.00D+00 EMaxC= 1.00D-01 BMatC= 7.92D-11 BMatP= 3.18D-09
 IDIUse=1 WtCom= 1.00D+00 WtEn= 0.00D+00
 Coeff-Com: -0.131D-01 0.195D+00 0.243D+00 0.576D+00
 Coeff:     -0.131D-01 0.195D+00 0.243D+00 0.576D+00
 Gap=     0.336 Goal=   None    Shift=    0.000
 RMSDP=1.17D-07 MaxDP=1.83D-06 DE=-2.38D-09 OVMax= 1.75D-06

 Cycle  10  Pass 1  IDiag  1:
 E= -194.353308813058     Delta-E=       -0.000000000062 Rises=F Damp=F
 DIIS: error= 2.41D-07 at cycle   5 NSaved=   5.
 NSaved= 5 IEnMin= 5 EnMin= -194.353308813058     IErMin= 5 ErrMin= 2.41D-07
 ErrMax= 2.41D-07  0.00D+00 EMaxC= 1.00D-01 BMatC= 4.26D-12 BMatP= 7.92D-11
 IDIUse=1 WtCom= 1.00D+00 WtEn= 0.00D+00
 Coeff-Com: -0.594D-02 0.767D-01 0.982D-01 0.280D+00 0.551D+00
 Coeff:     -0.594D-02 0.767D-01 0.982D-01 0.280D+00 0.551D+00
 Gap=     0.336 Goal=   None    Shift=    0.000
 RMSDP=2.76D-08 MaxDP=5.34D-07 DE=-6.21D-11 OVMax= 4.86D-07

 Cycle  11  Pass 1  IDiag  1:
 E= -194.353308813063     Delta-E=       -0.000000000005 Rises=F Damp=F
 DIIS: error= 3.34D-08 at cycle   6 NSaved=   6.
 NSaved= 6 IEnMin= 6 EnMin= -194.353308813063     IErMin= 6 ErrMin= 3.34D-08
 ErrMax= 3.34D-08  0.00D+00 EMaxC= 1.00D-01 BMatC= 9.61D-14 BMatP= 4.26D-12
 IDIUse=1 WtCom= 1.00D+00 WtEn= 0.00D+00
 Coeff-Com: -0.352D-04-0.285D-02-0.257D-02-0.213D-02 0.126D+00 0.881D+00
 Coeff:     -0.352D-04-0.285D-02-0.257D-02-0.213D-02 0.126D+00 0.881D+00
 Gap=     0.336 Goal=   None    Shift=    0.000
 RMSDP=4.28D-09 MaxDP=7.11D-08 DE=-4.66D-12 OVMax= 8.30D-08

 SCF Done:  E(RB3LYP) =  -194.353308813     A.U. after   11 cycles
            NFock= 11  Conv=0.43D-08     -V/T= 2.0095
 KE= 1.925309578105D+02 PE=-7.205239933266D+02 EE= 1.996709421579D+02
 Leave Link  502 at Thu Mar 19 18:26:01 2026, MaxMem=   536870912 cpu:         3.0
 (Enter C:\G09W\l701.exe)
 Compute integral first derivatives.
 ... and contract with generalized density number  0.
 Leave Link  701 at Thu Mar 19 18:26:02 2026, MaxMem=   536870912 cpu:         0.0
 (Enter C:\G09W\l702.exe)
 L702 exits ... SP integral derivatives will be done elsewhere.
 Leave Link  702 at Thu Mar 19 18:26:02 2026, MaxMem=   536870912 cpu:         0.0
 (Enter C:\G09W\l703.exe)
 Compute integral first derivatives, UseDBF=F ICtDFT=           0.
 Integral derivatives from FoFJK, PRISM(SPDF).
 Calling FoFJK, ICntrl=      2127 FMM=F ISym2X=0 I1Cent= 0 IOpClX= 0 NMat=1 NMatS=1 NMatT=0.
 FoFJK:  IHMeth= 1 ICntrl=    2127 DoSepK=F KAlg= 0 I1Cent=   0 FoldK=F
 IRaf=         0 NMat=   1 IRICut=       1 DoRegI=T DoRafI=F ISym2E= 0.
 FoFCou: FMM=F IPFlag=           0 FMFlag=      100000 FMFlg1=         800
         NFxFlg=           0 DoJE=F BraDBF=F KetDBF=F FulRan=T
         wScrn=  0.000000 ICntrl=    2127 IOpCl=  0 I1Cent=           0 NGrid=           0
         NMat0=    1 NMatS0=      1 NMatT0=    0 NMatD0=    1 NMtDS0=    0 NMtDT0=    0
 Symmetry not used in FoFCou.
 Leave Link  703 at Thu Mar 19 18:26:03 2026, MaxMem=   536870912 cpu:         1.0
 (Enter C:\G09W\l716.exe)
 Dipole        =-4.68062948D-07-5.07543709D-01 3.87580854D-01
 ***** Axes restored to original set *****
 -------------------------------------------------------------------
 Center     Atomic                   Forces (Hartrees/Bohr)
 Number     Number              X              Y              Z
 -------------------------------------------------------------------
      1        6          -0.000752051    0.001909216    0.001590095
      2        6           0.001630548   -0.000375071   -0.005330389
      3        8           0.000037517   -0.002959792    0.001194153
      4        6          -0.000701783    0.001915925    0.001605086
      5        1           0.000789601    0.000163739    0.000052029
      6        1          -0.000125691   -0.000873958    0.000343606
      7        1           0.000882366    0.000588352    0.000298184
      8        1           0.000535565   -0.001024279   -0.001348636
      9        1          -0.000701770    0.001193437    0.001833621
     10        1          -0.000706044   -0.000034217   -0.000391600
     11        1           0.000126563   -0.000840585    0.000418377
     12        1          -0.001014820    0.000337234   -0.000264528
 -------------------------------------------------------------------
 Cartesian Forces:  Max     0.005330389 RMS     0.001382842
 Leave Link  716 at Thu Mar 19 18:26:03 2026, MaxMem=   536870912 cpu:         0.0
 (Enter C:\G09W\l103.exe)

 GradGradGradGradGradGradGradGradGradGradGradGradGradGradGradGradGradGrad
 Berny optimization.
 Using GEDIIS/GDIIS optimizer.
 FormGI is forming the generalized inverse of G from B-inverse, IUseBI=4.
 Internal  Forces:  Max     0.002826742 RMS     0.000890761
 Search for a local minimum.
 Step number   2 out of a maximum of   61
 All quantities printed in internal units (Hartrees-Bohrs-Radians)
 RMS Force = .89076D-03 SwitMx=.10000D-02 MixMth= 2
 Mixed Optimization -- En-DIIS/RFO-DIIS
 Update second derivatives using D2CorX and points    1    2
 DE= -1.18D-03 DEPred=-1.80D-03 R= 6.55D-01
 TightC=F SS=  1.41D+00  RLast= 2.35D-01 DXNew= 5.0454D-01 7.0530D-01
 Trust test= 6.55D-01 RLast= 2.35D-01 DXMaxT set to 5.05D-01
 ITU=  1  0
 Use linear search instead of GDIIS.
     Eigenvalues ---    0.00487   0.00487   0.01370   0.04396   0.05388
     Eigenvalues ---    0.05487   0.05514   0.05717   0.06039   0.07636
     Eigenvalues ---    0.15881   0.16000   0.16000   0.16000   0.16000
     Eigenvalues ---    0.16000   0.17384   0.17479   0.20410   0.30264
     Eigenvalues ---    0.30847   0.34027   0.34172   0.34207   0.34218
     Eigenvalues ---    0.34261   0.34333   0.34506   0.41658   0.53121
 RFO step:  Lambda=-8.34612544D-05 EMin= 4.86936101D-03
 Quartic linear search produced a step of -0.21414.
 Iteration  1 RMS(Cart)=  0.00734005 RMS(Int)=  0.00010182
 Iteration  2 RMS(Cart)=  0.00005044 RMS(Int)=  0.00009564
 Iteration  3 RMS(Cart)=  0.00000000 RMS(Int)=  0.00009564
 ITry= 1 IFail=0 DXMaxC= 2.13D-02 DCOld= 1.00D+10 DXMaxT= 5.05D-01 DXLimC= 3.00D+00 Rises=F
 Variable       Old X    -DE/DX   Delta X   Delta X   Delta X     New X
                                 (Linear)    (Quad)   (Total)
    R1        2.89671  -0.00178  -0.00478   0.00070  -0.00408   2.89263
    R2        2.07037  -0.00056  -0.00012  -0.00116  -0.00128   2.06909
    R3        2.07578   0.00056  -0.00115   0.00257   0.00142   2.07720
    R4        2.07239  -0.00046  -0.00100   0.00006  -0.00094   2.07145
    R5        2.70348  -0.00018  -0.00255   0.00250  -0.00005   2.70343
    R6        2.89671  -0.00178  -0.00478   0.00070  -0.00408   2.89263
    R7        2.06998   0.00115  -0.00018   0.00285   0.00266   2.07264
    R8        1.83293   0.00170   0.00105   0.00136   0.00241   1.83534
    R9        2.07037  -0.00056  -0.00012  -0.00116  -0.00128   2.06909
   R10        2.07578   0.00056  -0.00115   0.00257   0.00142   2.07720
   R11        2.07239  -0.00046  -0.00100   0.00006  -0.00094   2.07145
    A1        1.92816  -0.00057  -0.00044  -0.00157  -0.00203   1.92613
    A2        1.92528   0.00108   0.00291   0.00296   0.00586   1.93115
    A3        1.95486  -0.00153  -0.00267  -0.00619  -0.00887   1.94600
    A4        1.88082   0.00022  -0.00411   0.00898   0.00486   1.88568
    A5        1.89193   0.00088   0.00087   0.00160   0.00246   1.89439
    A6        1.88051   0.00000   0.00342  -0.00529  -0.00187   1.87864
    A7        1.94745  -0.00076  -0.00884   0.00023  -0.00828   1.93916
    A8        1.96988   0.00027  -0.00366  -0.00076  -0.00407   1.96581
    A9        1.89547   0.00008   0.00334   0.00096   0.00420   1.89967
   A10        1.94745  -0.00076  -0.00884   0.00023  -0.00828   1.93916
   A11        1.79882   0.00121   0.01629  -0.00162   0.01453   1.81335
   A12        1.89547   0.00008   0.00334   0.00096   0.00419   1.89967
   A13        1.85744   0.00283   0.00561   0.00763   0.01325   1.87068
   A14        1.92816  -0.00057  -0.00044  -0.00157  -0.00203   1.92613
   A15        1.92528   0.00108   0.00291   0.00296   0.00586   1.93115
   A16        1.95486  -0.00153  -0.00267  -0.00619  -0.00887   1.94600
   A17        1.88082   0.00022  -0.00411   0.00898   0.00486   1.88568
   A18        1.89193   0.00088   0.00087   0.00160   0.00246   1.89439
   A19        1.88051   0.00000   0.00342  -0.00529  -0.00187   1.87864
    D1        0.93658   0.00110   0.01520  -0.00540   0.00986   0.94644
    D2       -3.13721  -0.00033  -0.00553  -0.00551  -0.01109   3.13488
    D3       -1.03444   0.00001  -0.00140  -0.00413  -0.00554  -1.03997
    D4       -1.14108   0.00051   0.01874  -0.01742   0.00138  -1.13971
    D5        1.06831  -0.00092  -0.00199  -0.01753  -0.01958   1.04873
    D6       -3.11211  -0.00059   0.00214  -0.01615  -0.01402  -3.12612
    D7        3.04758   0.00079   0.01421  -0.00864   0.00563   3.05321
    D8       -1.02622  -0.00064  -0.00652  -0.00876  -0.01532  -1.04154
    D9        1.07655  -0.00031  -0.00239  -0.00737  -0.00976   1.06679
   D10        1.11079  -0.00042  -0.00866  -0.00032  -0.00916   1.10163
   D11       -1.11079   0.00042   0.00866   0.00032   0.00916  -1.10163
   D12        3.14159   0.00000   0.00000   0.00000   0.00000   3.14159
   D13        3.13721   0.00033   0.00553   0.00551   0.01109  -3.13488
   D14       -1.06831   0.00092   0.00199   0.01753   0.01958  -1.04873
   D15        1.02622   0.00064   0.00652   0.00876   0.01532   1.04154
   D16       -0.93658  -0.00110  -0.01520   0.00540  -0.00986  -0.94644
   D17        1.14108  -0.00051  -0.01874   0.01742  -0.00137   1.13971
   D18       -3.04758  -0.00079  -0.01421   0.00864  -0.00563  -3.05321
   D19        1.03444  -0.00001   0.00140   0.00413   0.00553   1.03997
   D20        3.11211   0.00059  -0.00214   0.01615   0.01402   3.12612
   D21       -1.07656   0.00031   0.00239   0.00737   0.00976  -1.06679
         Item               Value     Threshold  Converged?
 Maximum Force            0.002827     0.000450     NO 
 RMS     Force            0.000891     0.000300     NO 
 Maximum Displacement     0.021338     0.001800     NO 
 RMS     Displacement     0.007359     0.001200     NO 
 Predicted change in Energy=-1.300997D-04
 Lowest energy point so far.  Saving SCF results.
 GradGradGradGradGradGradGradGradGradGradGradGradGradGradGradGradGradGrad

 Leave Link  103 at Thu Mar 19 18:26:04 2026, MaxMem=   536870912 cpu:         0.0
 (Enter C:\G09W\l202.exe)
                          Input orientation:                          
 ---------------------------------------------------------------------
 Center     Atomic      Atomic             Coordinates (Angstroms)
 Number     Number       Type             X           Y           Z
 ---------------------------------------------------------------------
      1          6           0       -1.154565   -0.538819   -0.382152
      2          6           0        0.052476    0.402173   -0.356386
      3          8           0       -0.288374    1.661292    0.231014
      4          6           0        1.268304   -0.218172    0.336442
      5          1           0       -2.002953   -0.056618   -0.878703
      6          1           0       -1.462784   -0.801918    0.639629
      7          1           0       -0.925581   -1.471518   -0.910556
      8          1           0        0.324548    0.657656   -1.387726
      9          1           0       -0.539144    1.489098    1.153364
     10          1           0        2.105780    0.487139    0.339898
     11          1           0        1.032433   -0.471695    1.379681
     12          1           0        1.589863   -1.138620   -0.164505
 ---------------------------------------------------------------------
                    Distance matrix (angstroms):
                    1          2          3          4          5
     1  C    0.000000
     2  C    1.530712   0.000000
     3  O    2.442693   1.430593   0.000000
     4  C    2.547448   1.530712   2.442692   0.000000
     5  H    1.094916   2.169814   2.668795   3.493394   0.000000
     6  H    1.099208   2.176670   2.759276   2.809186   1.775553
     7  H    1.096163   2.185044   3.394660   2.817626   1.778676
     8  H    2.151861   1.096794   2.000819   2.151861   2.487278
     9  H    2.617060   1.952118   0.971218   2.617060   2.943003
    10  H    3.493394   2.169814   2.668795   1.094916   4.319994
    11  H    2.809186   2.176670   2.759276   1.099208   3.806068
    12  H    2.817626   2.185044   3.394660   1.096162   3.819572
                    6          7          8          9         10
     6  H    0.000000
     7  H    1.772012   0.000000
     8  H    3.071657   2.514735   0.000000
     9  H    2.523051   3.629649   2.809697   0.000000
    10  H    3.806068   3.819572   2.487278   2.943004   0.000000
    11  H    2.623515   3.174689   3.071657   2.523051   1.775553
    12  H    3.174689   2.644782   2.514736   3.629649   1.778676
                   11         12
    11  H    0.000000
    12  H    1.772012   0.000000
 Stoichiometry    C3H8O
 Framework group  C1[X(C3H8O)]
 Deg. of freedom    30
 Full point group                 C1      NOp   1
 RotChk:  IX=0 Diff= 1.15D-03
 Largest Abelian subgroup         C1      NOp   1
 Largest concise Abelian subgroup C1      NOp   1
                         Standard orientation:                         
 ---------------------------------------------------------------------
 Center     Atomic      Atomic             Coordinates (Angstroms)
 Number     Number       Type             X           Y           Z
 ---------------------------------------------------------------------
      1          6           0       -1.273724   -0.667556    0.098034
      2          6           0        0.000000    0.040143   -0.370867
      3          8           0        0.000000    1.415414    0.023123
      4          6           0        1.273724   -0.667556    0.098034
      5          1           0       -2.159997   -0.127817   -0.251314
      6          1           0       -1.311757   -0.710103    1.195759
      7          1           0       -1.322391   -1.696730   -0.276138
      8          1           0        0.000000    0.080117   -1.466932
      9          1           0        0.000000    1.435690    0.994129
     10          1           0        2.159997   -0.127818   -0.251314
     11          1           0        1.311757   -0.710102    1.195759
     12          1           0        1.322391   -1.696730   -0.276137
 ---------------------------------------------------------------------
 Rotational constants (GHZ):      8.4661978      7.9546679      4.7306876
 Leave Link  202 at Thu Mar 19 18:26:04 2026, MaxMem=   536870912 cpu:         0.0
 (Enter C:\G09W\l301.exe)
 Standard basis: 6-31G(d) (6D, 7F)
 Ernie: Thresh=  0.10000D-02 Tol=  0.10000D-05 Strict=F.
 There are    76 symmetry adapted cartesian basis functions of A   symmetry.
 There are    76 symmetry adapted basis functions of A   symmetry.
    76 basis functions,   144 primitive gaussians,    76 cartesian basis functions
    17 alpha electrons       17 beta electrons
       nuclear repulsion energy       134.1330118899 Hartrees.
 IExCor=  402 DFT=T Ex+Corr=B3LYP ExCW=0 ScaHFX=  0.200000
 ScaDFX=  0.800000  0.720000  1.000000  0.810000 ScalE2=  1.000000  1.000000
 IRadAn=      0 IRanWt=     -1 IRanGd=            0 ICorTp=0 IEmpDi=  4
 NAtoms=   12 NActive=   12 NUniq=   12 SFac= 1.00D+00 NAtFMM=   60 NAOKFM=F Big=F
 Integral buffers will be    131072 words long.
 Raffenetti 2 integral format.
 Two-electron integral symmetry is turned on.
 Leave Link  301 at Thu Mar 19 18:26:04 2026, MaxMem=   536870912 cpu:         0.0
 (Enter C:\G09W\l302.exe)
 NPDir=0 NMtPBC=     1 NCelOv=     1 NCel=       1 NClECP=     1 NCelD=      1
         NCelK=      1 NCelE2=     1 NClLst=     1 CellRange=     0.0.
 One-electron integrals computed using PRISM.
 NBasis=    76 RedAO= T EigKep=  4.53D-03  NBF=    76
 NBsUse=    76 1.00D-06 EigRej= -1.00D+00 NBFU=    76
 Precomputing XC quadrature grid using
 IXCGrd= 4 IRadAn=           0 IRanWt=          -1 IRanGd=           0 AccXCQ= 0.00D+00.
 Generated NRdTot=       0 NPtTot=           0 NUsed=           0 NTot=          32
 NSgBfM=    76    76    76    76    76 MxSgAt=    12 MxSgA2=    12.
 Leave Link  302 at Thu Mar 19 18:26:05 2026, MaxMem=   536870912 cpu:         1.0
 (Enter C:\G09W\l303.exe)
 DipDrv:  MaxL=1.
 Leave Link  303 at Thu Mar 19 18:26:05 2026, MaxMem=   536870912 cpu:         0.0
 (Enter C:\G09W\l401.exe)
 Initial guess from the checkpoint file:  "2-propanol_rdkit.chk"
 B after Tr=     0.000000    0.000000    0.000000
         Rot=    1.000000    0.000413    0.000000    0.000000 Ang=   0.05 deg.
 Guess basis will be translated and rotated to current coordinates.
 JPrj=2 DoOrth=T DoCkMO=T.
 Generating alternative initial guess.
 ExpMin= 1.61D-01 ExpMax= 5.48D+03 ExpMxC= 8.25D+02 IAcc=1 IRadAn=         1 AccDes= 0.00D+00
 Harris functional with IExCor=  402 and IRadAn=       1 diagonalized for initial guess.
 HarFok:  IExCor=  402 AccDes= 0.00D+00 IRadAn=         1 IDoV= 1 UseB2=F ITyADJ=14
 ICtDFT=  3500011 ScaDFX=  1.000000  1.000000  1.000000  1.000000
 FoFCou: FMM=F IPFlag=           0 FMFlag=      100000 FMFlg1=           0
         NFxFlg=           0 DoJE=T BraDBF=F KetDBF=T FulRan=T
         wScrn=  0.000000 ICntrl=     500 IOpCl=  0 I1Cent=   200000004 NGrid=           0
         NMat0=    1 NMatS0=      1 NMatT0=    0 NMatD0=    1 NMtDS0=    0 NMtDT0=    0
 Petite list used in FoFCou.
 Harris En= -194.409301367473    
 Leave Link  401 at Thu Mar 19 18:26:06 2026, MaxMem=   536870912 cpu:         1.0
 (Enter C:\G09W\l502.exe)
 Closed shell SCF:
 Using DIIS extrapolation, IDIIS=  1040.
 Integral symmetry usage will be decided dynamically.
 Keep R1 ints in memory in canonical form, NReq=5217425.
 IVT=       36922 IEndB=       36922 NGot=   536870912 MDV=   532551790
 LenX=   532551790 LenY=   532545573
 Requested convergence on RMS density matrix=1.00D-08 within 128 cycles.
 Requested convergence on MAX density matrix=1.00D-06.
 Requested convergence on             energy=1.00D-06.
 No special actions if energy rises.
 FoFCou: FMM=F IPFlag=           0 FMFlag=           0 FMFlg1=           0
         NFxFlg=           0 DoJE=F BraDBF=F KetDBF=F FulRan=T
         wScrn=  0.000000 ICntrl=     600 IOpCl=  0 I1Cent=           0 NGrid=           0
         NMat0=    1 NMatS0=   2926 NMatT0=    0 NMatD0=    1 NMtDS0=    0 NMtDT0=    0
 Symmetry not used in FoFCou.
 Integral accuracy reduced to 1.0D-05 until final iterations.

 Cycle   1  Pass 0  IDiag  1:
 E= -194.353398267905    
 DIIS: error= 4.82D-04 at cycle   1 NSaved=   1.
 NSaved= 1 IEnMin= 1 EnMin= -194.353398267905     IErMin= 1 ErrMin= 4.82D-04
 ErrMax= 4.82D-04  0.00D+00 EMaxC= 1.00D-01 BMatC= 2.89D-05 BMatP= 2.89D-05
 IDIUse=3 WtCom= 9.95D-01 WtEn= 4.82D-03
 Coeff-Com:  0.100D+01
 Coeff-En:   0.100D+01
 Coeff:      0.100D+01
 Gap=     1.595 Goal=   None    Shift=    0.000
 RMSDP=1.23D-04 MaxDP=1.01D-03              OVMax= 1.87D-03

 Cycle   2  Pass 0  IDiag  1:
 E= -194.353443508851     Delta-E=       -0.000045240946 Rises=F Damp=F
 DIIS: error= 1.05D-04 at cycle   2 NSaved=   2.
 NSaved= 2 IEnMin= 2 EnMin= -194.353443508851     IErMin= 2 ErrMin= 1.05D-04
 ErrMax= 1.05D-04  0.00D+00 EMaxC= 1.00D-01 BMatC= 1.25D-06 BMatP= 2.89D-05
 IDIUse=3 WtCom= 9.99D-01 WtEn= 1.05D-03
 Coeff-Com:  0.382D-01 0.962D+00
 Coeff-En:   0.000D+00 0.100D+01
 Coeff:      0.382D-01 0.962D+00
 Gap=     0.335 Goal=   None    Shift=    0.000
 RMSDP=2.94D-05 MaxDP=4.89D-04 DE=-4.52D-05 OVMax= 4.85D-04

 Cycle   3  Pass 0  IDiag  1:
 E= -194.353443339249     Delta-E=        0.000000169602 Rises=F Damp=F
 DIIS: error= 1.40D-04 at cycle   3 NSaved=   3.
 NSaved= 3 IEnMin= 2 EnMin= -194.353443508851     IErMin= 2 ErrMin= 1.05D-04
 ErrMax= 1.40D-04  0.00D+00 EMaxC= 1.00D-01 BMatC= 1.89D-06 BMatP= 1.25D-06
 IDIUse=3 WtCom= 4.58D-01 WtEn= 5.42D-01
 Coeff-Com: -0.235D-01 0.562D+00 0.461D+00
 Coeff-En:   0.000D+00 0.534D+00 0.466D+00
 Coeff:     -0.108D-01 0.547D+00 0.464D+00
 Gap=     0.335 Goal=   None    Shift=    0.000
 RMSDP=1.65D-05 MaxDP=3.07D-04 DE= 1.70D-07 OVMax= 3.03D-04

 Cycle   4  Pass 0  IDiag  1:
 E= -194.353444713969     Delta-E=       -0.000001374720 Rises=F Damp=F
 DIIS: error= 2.50D-05 at cycle   4 NSaved=   4.
 NSaved= 4 IEnMin= 4 EnMin= -194.353444713969     IErMin= 4 ErrMin= 2.50D-05
 ErrMax= 2.50D-05  0.00D+00 EMaxC= 1.00D-01 BMatC= 5.46D-08 BMatP= 1.25D-06
 IDIUse=1 WtCom= 1.00D+00 WtEn= 0.00D+00
 Coeff-Com: -0.129D-01 0.162D+00 0.210D+00 0.641D+00
 Coeff:     -0.129D-01 0.162D+00 0.210D+00 0.641D+00
 Gap=     0.335 Goal=   None    Shift=    0.000
 RMSDP=2.69D-06 MaxDP=4.91D-05 DE=-1.37D-06 OVMax= 4.08D-05

 Initial convergence to 1.0D-05 achieved.  Increase integral accuracy.
 Cycle   5  Pass 1  IDiag  1:
 E= -194.353446908118     Delta-E=       -0.000002194149 Rises=F Damp=F
 DIIS: error= 1.18D-05 at cycle   1 NSaved=   1.
 NSaved= 1 IEnMin= 1 EnMin= -194.353446908118     IErMin= 1 ErrMin= 1.18D-05
 ErrMax= 1.18D-05  0.00D+00 EMaxC= 1.00D-01 BMatC= 1.94D-08 BMatP= 1.94D-08
 IDIUse=1 WtCom= 1.00D+00 WtEn= 0.00D+00
 Coeff-Com:  0.100D+01
 Coeff:      0.100D+01
 Gap=     0.335 Goal=   None    Shift=    0.000
 RMSDP=2.69D-06 MaxDP=4.91D-05 DE=-2.19D-06 OVMax= 4.70D-05

 Cycle   6  Pass 1  IDiag  1:
 E= -194.353446934728     Delta-E=       -0.000000026610 Rises=F Damp=F
 DIIS: error= 3.38D-06 at cycle   2 NSaved=   2.
 NSaved= 2 IEnMin= 2 EnMin= -194.353446934728     IErMin= 2 ErrMin= 3.38D-06
 ErrMax= 3.38D-06  0.00D+00 EMaxC= 1.00D-01 BMatC= 1.40D-09 BMatP= 1.94D-08
 IDIUse=1 WtCom= 1.00D+00 WtEn= 0.00D+00
 Coeff-Com:  0.763D-01 0.924D+00
 Coeff:      0.763D-01 0.924D+00
 Gap=     0.335 Goal=   None    Shift=    0.000
 RMSDP=9.18D-07 MaxDP=1.52D-05 DE=-2.66D-08 OVMax= 1.70D-05

 Cycle   7  Pass 1  IDiag  1:
 E= -194.353446934384     Delta-E=        0.000000000344 Rises=F Damp=F
 DIIS: error= 3.86D-06 at cycle   3 NSaved=   3.
 NSaved= 3 IEnMin= 2 EnMin= -194.353446934728     IErMin= 2 ErrMin= 3.38D-06
 ErrMax= 3.86D-06  0.00D+00 EMaxC= 1.00D-01 BMatC= 2.05D-09 BMatP= 1.40D-09
 IDIUse=1 WtCom= 1.00D+00 WtEn= 0.00D+00
 Coeff-Com: -0.266D-01 0.557D+00 0.469D+00
 Coeff:     -0.266D-01 0.557D+00 0.469D+00
 Gap=     0.335 Goal=   None    Shift=    0.000
 RMSDP=4.86D-07 MaxDP=9.15D-06 DE= 3.44D-10 OVMax= 8.16D-06

 Cycle   8  Pass 1  IDiag  1:
 E= -194.353446936020     Delta-E=       -0.000000001636 Rises=F Damp=F
 DIIS: error= 5.43D-07 at cycle   4 NSaved=   4.
 NSaved= 4 IEnMin= 4 EnMin= -194.353446936020     IErMin= 4 ErrMin= 5.43D-07
 ErrMax= 5.43D-07  0.00D+00 EMaxC= 1.00D-01 BMatC= 3.01D-11 BMatP= 1.40D-09
 IDIUse=1 WtCom= 1.00D+00 WtEn= 0.00D+00
 Coeff-Com: -0.137D-01 0.229D+00 0.216D+00 0.570D+00
 Coeff:     -0.137D-01 0.229D+00 0.216D+00 0.570D+00
 Gap=     0.335 Goal=   None    Shift=    0.000
 RMSDP=7.33D-08 MaxDP=1.22D-06 DE=-1.64D-09 OVMax= 1.22D-06

 Cycle   9  Pass 1  IDiag  1:
 E= -194.353446936040     Delta-E=       -0.000000000020 Rises=F Damp=F
 DIIS: error= 1.33D-07 at cycle   5 NSaved=   5.
 NSaved= 5 IEnMin= 5 EnMin= -194.353446936040     IErMin= 5 ErrMin= 1.33D-07
 ErrMax= 1.33D-07  0.00D+00 EMaxC= 1.00D-01 BMatC= 1.62D-12 BMatP= 3.01D-11
 IDIUse=1 WtCom= 1.00D+00 WtEn= 0.00D+00
 Coeff-Com: -0.392D-02 0.582D-01 0.594D-01 0.235D+00 0.651D+00
 Coeff:     -0.392D-02 0.582D-01 0.594D-01 0.235D+00 0.651D+00
 Gap=     0.335 Goal=   None    Shift=    0.000
 RMSDP=2.46D-08 MaxDP=2.68D-07 DE=-2.01D-11 OVMax= 3.53D-07

 Cycle  10  Pass 1  IDiag  1:
 E= -194.353446936044     Delta-E=       -0.000000000004 Rises=F Damp=F
 DIIS: error= 4.38D-08 at cycle   6 NSaved=   6.
 NSaved= 6 IEnMin= 6 EnMin= -194.353446936044     IErMin= 6 ErrMin= 4.38D-08
 ErrMax= 4.38D-08  0.00D+00 EMaxC= 1.00D-01 BMatC= 1.25D-13 BMatP= 1.62D-12
 IDIUse=1 WtCom= 1.00D+00 WtEn= 0.00D+00
 Coeff-Com: -0.751D-04-0.278D-02-0.112D-02 0.147D-01 0.239D+00 0.751D+00
 Coeff:     -0.751D-04-0.278D-02-0.112D-02 0.147D-01 0.239D+00 0.751D+00
 Gap=     0.335 Goal=   None    Shift=    0.000
 RMSDP=5.40D-09 MaxDP=7.84D-08 DE=-3.98D-12 OVMax= 8.57D-08

 SCF Done:  E(RB3LYP) =  -194.353446936     A.U. after   10 cycles
            NFock= 10  Conv=0.54D-08     -V/T= 2.0094
 KE= 1.925351843868D+02 PE=-7.208642274850D+02 EE= 1.998425842722D+02
 Leave Link  502 at Thu Mar 19 18:26:09 2026, MaxMem=   536870912 cpu:         3.0
 (Enter C:\G09W\l701.exe)
 Compute integral first derivatives.
 ... and contract with generalized density number  0.
 Leave Link  701 at Thu Mar 19 18:26:10 2026, MaxMem=   536870912 cpu:         0.0
 (Enter C:\G09W\l702.exe)
 L702 exits ... SP integral derivatives will be done elsewhere.
 Leave Link  702 at Thu Mar 19 18:26:10 2026, MaxMem=   536870912 cpu:         0.0
 (Enter C:\G09W\l703.exe)
 Compute integral first derivatives, UseDBF=F ICtDFT=           0.
 Integral derivatives from FoFJK, PRISM(SPDF).
[...]
    A2        1.93147   0.00002  -0.00003   0.00018   0.00015   1.93162
    A3        1.94455   0.00000   0.00001  -0.00001   0.00000   1.94455
    A4        1.88783  -0.00001  -0.00001  -0.00007  -0.00008   1.88774
    A5        1.89495  -0.00001   0.00000  -0.00010  -0.00010   1.89486
    A6        1.87753   0.00000   0.00001   0.00006   0.00007   1.87760
    A7        1.93908   0.00000   0.00002  -0.00002  -0.00001   1.93907
    A8        1.96593   0.00001   0.00002   0.00008   0.00010   1.96603
    A9        1.89962   0.00000   0.00001   0.00001   0.00002   1.89965
   A10        1.93908   0.00000   0.00002  -0.00002  -0.00001   1.93907
   A11        1.81349  -0.00001  -0.00010  -0.00006  -0.00015   1.81334
   A12        1.89962   0.00000   0.00001   0.00001   0.00002   1.89965
   A13        1.86939  -0.00003  -0.00012   0.00001  -0.00011   1.86928
   A14        1.92576   0.00000   0.00002  -0.00007  -0.00005   1.92571
   A15        1.93147   0.00002  -0.00003   0.00018   0.00015   1.93162
   A16        1.94455   0.00000   0.00001  -0.00001   0.00000   1.94455
   A17        1.88783  -0.00001  -0.00001  -0.00007  -0.00008   1.88774
   A18        1.89495  -0.00001   0.00000  -0.00010  -0.00010   1.89486
   A19        1.87753   0.00000   0.00001   0.00006   0.00007   1.87760
    D1        0.93740   0.00000  -0.00001  -0.00021  -0.00023   0.93717
    D2        3.12575   0.00000   0.00004  -0.00020  -0.00016   3.12559
    D3       -1.04912   0.00001   0.00008  -0.00013  -0.00005  -1.04917
    D4       -1.15139   0.00000   0.00001  -0.00020  -0.00019  -1.15158
    D5        1.03696   0.00000   0.00006  -0.00019  -0.00012   1.03684
    D6       -3.13791   0.00001   0.00011  -0.00012  -0.00001  -3.13792
    D7        3.04367  -0.00001   0.00001  -0.00039  -0.00037   3.04329
    D8       -1.05117  -0.00001   0.00007  -0.00037  -0.00031  -1.05148
    D9        1.05715   0.00000   0.00011  -0.00031  -0.00020   1.05695
   D10        1.10164   0.00001   0.00003   0.00004   0.00006   1.10171
   D11       -1.10164  -0.00001  -0.00003  -0.00003  -0.00006  -1.10171
   D12        3.14159   0.00000   0.00000   0.00000   0.00000   3.14159
   D13       -3.12575   0.00000  -0.00004   0.00020   0.00016  -3.12559
   D14       -1.03696   0.00000  -0.00006   0.00019   0.00012  -1.03684
   D15        1.05117   0.00001  -0.00007   0.00037   0.00031   1.05148
   D16       -0.93740   0.00000   0.00001   0.00021   0.00023  -0.93717
   D17        1.15139   0.00000  -0.00001   0.00020   0.00019   1.15158
   D18       -3.04367   0.00001  -0.00001   0.00039   0.00037  -3.04329
   D19        1.04912  -0.00001  -0.00008   0.00013   0.00005   1.04917
   D20        3.13791  -0.00001  -0.00011   0.00012   0.00001   3.13792
   D21       -1.05715   0.00000  -0.00011   0.00031   0.00020  -1.05695
         Item               Value     Threshold  Converged?
 Maximum Force            0.000033     0.000450     YES
 RMS     Force            0.000012     0.000300     YES
 Maximum Displacement     0.000496     0.001800     YES
 RMS     Displacement     0.000174     0.001200     YES
 Predicted change in Energy=-1.989737D-08
 Optimization completed.
    -- Stationary point found.
                           ----------------------------
                           !   Optimized Parameters   !
                           ! (Angstroms and Degrees)  !
 --------------------------                            --------------------------
 ! Name  Definition              Value          Derivative Info.                !
 --------------------------------------------------------------------------------
 ! R1    R(1,2)                  1.5303         -DE/DX =    0.0                 !
 ! R2    R(1,5)                  1.0945         -DE/DX =    0.0                 !
 ! R3    R(1,6)                  1.0989         -DE/DX =    0.0                 !
 ! R4    R(1,7)                  1.0964         -DE/DX =    0.0                 !
 ! R5    R(2,3)                  1.4305         -DE/DX =    0.0                 !
 ! R6    R(2,4)                  1.5303         -DE/DX =    0.0                 !
 ! R7    R(2,8)                  1.0967         -DE/DX =    0.0                 !
 ! R8    R(3,9)                  0.9712         -DE/DX =    0.0                 !
 ! R9    R(4,10)                 1.0945         -DE/DX =    0.0                 !
 ! R10   R(4,11)                 1.0989         -DE/DX =    0.0                 !
 ! R11   R(4,12)                 1.0964         -DE/DX =    0.0                 !
 ! A1    A(2,1,5)              110.3379         -DE/DX =    0.0                 !
 ! A2    A(2,1,6)              110.6649         -DE/DX =    0.0                 !
 ! A3    A(2,1,7)              111.4146         -DE/DX =    0.0                 !
 ! A4    A(5,1,6)              108.1645         -DE/DX =    0.0                 !
 ! A5    A(5,1,7)              108.5729         -DE/DX =    0.0                 !
 ! A6    A(6,1,7)              107.5744         -DE/DX =    0.0                 !
 ! A7    A(1,2,3)              111.101          -DE/DX =    0.0                 !
 ! A8    A(1,2,4)              112.6393         -DE/DX =    0.0                 !
 ! A9    A(1,2,8)              108.8404         -DE/DX =    0.0                 !
 ! A10   A(3,2,4)              111.101          -DE/DX =    0.0                 !
 ! A11   A(3,2,8)              103.9055         -DE/DX =    0.0                 !
 ! A12   A(4,2,8)              108.8404         -DE/DX =    0.0                 !
 ! A13   A(2,3,9)              107.1082         -DE/DX =    0.0                 !
 ! A14   A(2,4,10)             110.3379         -DE/DX =    0.0                 !
 ! A15   A(2,4,11)             110.6649         -DE/DX =    0.0                 !
 ! A16   A(2,4,12)             111.4146         -DE/DX =    0.0                 !
 ! A17   A(10,4,11)            108.1645         -DE/DX =    0.0                 !
 ! A18   A(10,4,12)            108.5729         -DE/DX =    0.0                 !
 ! A19   A(11,4,12)            107.5744         -DE/DX =    0.0                 !
 ! D1    D(5,1,2,3)             53.7088         -DE/DX =    0.0                 !
 ! D2    D(5,1,2,4)            179.0922         -DE/DX =    0.0                 !
 ! D3    D(5,1,2,8)            -60.11           -DE/DX =    0.0                 !
 ! D4    D(6,1,2,3)            -65.97           -DE/DX =    0.0                 !
 ! D5    D(6,1,2,4)             59.4133         -DE/DX =    0.0                 !
 ! D6    D(6,1,2,8)           -179.7889         -DE/DX =    0.0                 !
 ! D7    D(7,1,2,3)            174.3892         -DE/DX =    0.0                 !
 ! D8    D(7,1,2,4)            -60.2275         -DE/DX =    0.0                 !
 ! D9    D(7,1,2,8)             60.5704         -DE/DX =    0.0                 !
 ! D10   D(1,2,3,9)             63.1196         -DE/DX =    0.0                 !
 ! D11   D(4,2,3,9)            -63.1196         -DE/DX =    0.0                 !
 ! D12   D(8,2,3,9)            180.0            -DE/DX =    0.0                 !
 ! D13   D(1,2,4,10)          -179.0922         -DE/DX =    0.0                 !
 ! D14   D(1,2,4,11)           -59.4133         -DE/DX =    0.0                 !
 ! D15   D(1,2,4,12)            60.2275         -DE/DX =    0.0                 !
 ! D16   D(3,2,4,10)           -53.7088         -DE/DX =    0.0                 !
 ! D17   D(3,2,4,11)            65.97           -DE/DX =    0.0                 !
 ! D18   D(3,2,4,12)          -174.3892         -DE/DX =    0.0                 !
 ! D19   D(8,2,4,10)            60.11           -DE/DX =    0.0                 !
 ! D20   D(8,2,4,11)           179.7889         -DE/DX =    0.0                 !
 ! D21   D(8,2,4,12)           -60.5704         -DE/DX =    0.0                 !
 --------------------------------------------------------------------------------
 Lowest energy point so far.  Saving SCF results.
 GradGradGradGradGradGradGradGradGradGradGradGradGradGradGradGradGradGrad

 Largest change from initial coordinates is atom   11       0.063 Angstoms.
 Leave Link  103 at Thu Mar 19 18:26:28 2026, MaxMem=   536870912 cpu:         0.0
 (Enter C:\G09W\l202.exe)
                          Input orientation:                          
 ---------------------------------------------------------------------
 Center     Atomic      Atomic             Coordinates (Angstroms)
 Number     Number       Type             X           Y           Z
 ---------------------------------------------------------------------
      1          6           0       -1.154821   -0.538352   -0.380520
      2          6           0        0.052875    0.401229   -0.357312
      3          8           0       -0.287006    1.662500    0.225861
      4          6           0        1.267524   -0.217775    0.337919
      5          1           0       -2.004806   -0.053305   -0.870708
      6          1           0       -1.456528   -0.807434    0.641340
      7          1           0       -0.928031   -1.468679   -0.914563
      8          1           0        0.325631    0.652956   -1.389281
      9          1           0       -0.538121    1.492290    1.148491
     10          1           0        2.102196    0.490224    0.347380
     11          1           0        1.027773   -0.478657    1.378155
     12          1           0        1.593315   -1.134999   -0.166761
 ---------------------------------------------------------------------
                    Distance matrix (angstroms):
                    1          2          3          4          5
     1  C    0.000000
     2  C    1.530321   0.000000
     3  O    2.442244   1.430529   0.000000
     4  C    2.546897   1.530321   2.442244   0.000000
     5  H    1.094545   2.168923   2.664073   3.492273   0.000000
     6  H    1.098922   2.176343   2.764232   2.803608   1.776403
     7  H    1.096423   2.183864   3.393488   2.820272   1.778946
     8  H    2.151408   1.096688   2.000797   2.151408   2.489711
     9  H    2.615664   1.951187   0.971224   2.615665   2.935505
    10  H    3.492273   2.168923   2.664073   1.094545   4.318174
    11  H    2.803608   2.176343   2.764232   1.098922   3.799321
    12  H    2.820272   2.183864   3.393488   1.096423   3.822575
                    6          7          8          9         10
     6  H    0.000000
     7  H    1.771267   0.000000
     8  H    3.071197   2.509654   0.000000
     9  H    2.527726   3.629815   2.809063   0.000000
    10  H    3.799321   3.822575   2.489711   2.935505   0.000000
    11  H    2.612038   3.172045   3.071197   2.527726   1.776403
    12  H    3.172045   2.650988   2.509654   3.629815   1.778946
                   11         12
    11  H    0.000000
    12  H    1.771267   0.000000
 Stoichiometry    C3H8O
 Framework group  C1[X(C3H8O)]
 Deg. of freedom    30
 Full point group                 C1      NOp   1
 RotChk:  IX=0 Diff= 9.39D-10
 Largest Abelian subgroup         C1      NOp   1
 Largest concise Abelian subgroup C1      NOp   1
                         Standard orientation:                         
 ---------------------------------------------------------------------
 Center     Atomic      Atomic             Coordinates (Angstroms)
 Number     Number       Type             X           Y           Z
 ---------------------------------------------------------------------
      1          6           0       -1.273448   -0.667224    0.098067
      2          6           0        0.000000    0.040196   -0.370728
      3          8           0        0.000000    1.415392    0.023290
      4          6           0        1.273448   -0.667224    0.098067
      5          1           0       -2.159087   -0.122276   -0.243553
      6          1           0       -1.306019   -0.720464    1.195216
      7          1           0       -1.325494   -1.693285   -0.284862
      8          1           0        0.000000    0.080048   -1.466691
      9          1           0        0.000000    1.434381    0.994329
     10          1           0        2.159087   -0.122276   -0.243553
     11          1           0        1.306019   -0.720464    1.195216
     12          1           0        1.325494   -1.693284   -0.284862
 ---------------------------------------------------------------------
 Rotational constants (GHZ):      8.4681790      7.9596964      4.7329390
 Leave Link  202 at Thu Mar 19 18:26:28 2026, MaxMem=   536870912 cpu:         0.0
 (Enter C:\G09W\l601.exe)
 Copying SCF densities to generalized density rwf, IOpCl= 0 IROHF=0.

 **********************************************************************

            Population analysis using the SCF density.

 **********************************************************************

 Orbital symmetries:
       Occupied  (A) (A) (A) (A) (A) (A) (A) (A) (A) (A) (A) (A)
                 (A) (A) (A) (A) (A)
       Virtual   (A) (A) (A) (A) (A) (A) (A) (A) (A) (A) (A) (A)
                 (A) (A) (A) (A) (A) (A) (A) (A) (A) (A) (A) (A)
                 (A) (A) (A) (A) (A) (A) (A) (A) (A) (A) (A) (A)
                 (A) (A) (A) (A) (A) (A) (A) (A) (A) (A) (A) (A)
                 (A) (A) (A) (A) (A) (A) (A) (A) (A) (A) (A)
 The electronic state is 1-A.
 Alpha  occ. eigenvalues --  -19.13546 -10.23278 -10.17528 -10.17527  -1.00871
 Alpha  occ. eigenvalues --   -0.76529  -0.68795  -0.59719  -0.47438  -0.46329
 Alpha  occ. eigenvalues --   -0.42322  -0.40798  -0.38882  -0.35656  -0.35314
 Alpha  occ. eigenvalues --   -0.31475  -0.26114
 Alpha virt. eigenvalues --    0.07362   0.11850   0.13254   0.15153   0.15501
 Alpha virt. eigenvalues --    0.17514   0.18857   0.19276   0.22827   0.24102
 Alpha virt. eigenvalues --    0.26503   0.50380   0.53550   0.55302   0.58252
 Alpha virt. eigenvalues --    0.58671   0.64095   0.70852   0.70936   0.76390
 Alpha virt. eigenvalues --    0.83528   0.85872   0.88978   0.89434   0.90553
 Alpha virt. eigenvalues --    0.91502   0.94013   0.97013   0.98261   1.01459
 Alpha virt. eigenvalues --    1.05228   1.13378   1.35180   1.40758   1.41786
 Alpha virt. eigenvalues --    1.55744   1.65038   1.73795   1.77362   1.79309
 Alpha virt. eigenvalues --    1.85543   1.96817   1.97917   2.07257   2.15156
 Alpha virt. eigenvalues --    2.18519   2.22913   2.23413   2.24999   2.36604
 Alpha virt. eigenvalues --    2.51519   2.52359   2.59773   2.72595   2.85805
 Alpha virt. eigenvalues --    3.74926   4.16565   4.27925   4.50347
          Condensed to atoms (all electrons):
               1          2          3          4          5          6
     1  C    5.182616   0.366423  -0.050227  -0.062936   0.369346   0.363010
     2  C    0.366423   4.651372   0.274237   0.366423  -0.027679  -0.030480
     3  O   -0.050227   0.274237   8.249628  -0.050227   0.002573  -0.002085
     4  C   -0.062936   0.366423  -0.050227   5.182616   0.005813  -0.008083
     5  H    0.369346  -0.027679   0.002573   0.005813   0.555064  -0.031630
     6  H    0.363010  -0.030480  -0.002085  -0.008083  -0.031630   0.591414
     7  H    0.345178  -0.022056   0.003590   0.000862  -0.026282  -0.029085
     8  H   -0.054007   0.391000  -0.044512  -0.054007  -0.004547   0.005709
     9  H   -0.006473  -0.030360   0.229429  -0.006473  -0.000693   0.005629
    10  H    0.005813  -0.027679   0.002573   0.369346  -0.000184  -0.000077
    11  H   -0.008083  -0.030480  -0.002085   0.363010  -0.000077   0.005654
    12  H    0.000862  -0.022056   0.003590   0.345178  -0.000143   0.000084
               7          8          9         10         11         12
     1  C    0.345178  -0.054007  -0.006473   0.005813  -0.008083   0.000862
     2  C   -0.022056   0.391000  -0.030360  -0.027679  -0.030480  -0.022056
     3  O    0.003590  -0.044512   0.229429   0.002573  -0.002085   0.003590
     4  C    0.000862  -0.054007  -0.006473   0.369346   0.363010   0.345178
     5  H   -0.026282  -0.004547  -0.000693  -0.000184  -0.000077  -0.000143
     6  H   -0.029085   0.005709   0.005629  -0.000077   0.005654   0.000084
     7  H    0.586385  -0.000902  -0.000098  -0.000143   0.000084   0.000395
     8  H   -0.000902   0.614199   0.008635  -0.004547   0.005709  -0.000902
     9  H   -0.000098   0.008635   0.416440  -0.000693   0.005629  -0.000098
    10  H   -0.000143  -0.004547  -0.000693   0.555064  -0.031630  -0.026282
    11  H    0.000084   0.005709   0.005629  -0.031630   0.591414  -0.029085
    12  H    0.000395  -0.000902  -0.000098  -0.026282  -0.029085   0.586385
 Mulliken charges:
               1
     1  C   -0.451523
     2  C    0.141335
     3  O   -0.616485
     4  C   -0.451523
     5  H    0.158439
     6  H    0.129938
     7  H    0.142071
     8  H    0.138173
     9  H    0.379127
    10  H    0.158439
    11  H    0.129938
    12  H    0.142071
 Sum of Mulliken charges =   0.00000
 Mulliken charges with hydrogens summed into heavy atoms:
               1
     1  C   -0.021075
     2  C    0.279508
     3  O   -0.237358
     4  C   -0.021075
 Electronic spatial extent (au):  <R**2>=            320.5833
 Charge=              0.0000 electrons
 Dipole moment (field-independent basis, Debye):
    X=              0.0000    Y=             -1.2857    Z=              0.9782  Tot=              1.6155
 Quadrupole moment (field-independent basis, Debye-Ang):
   XX=            -26.6658   YY=            -28.9373   ZZ=            -24.1140
   XY=              0.0000   XZ=              0.0000   YZ=              2.3841
 Traceless Quadrupole moment (field-independent basis, Debye-Ang):
   XX=             -0.0934   YY=             -2.3649   ZZ=              2.4584
   XY=              0.0000   XZ=              0.0000   YZ=              2.3841
 Octapole moment (field-independent basis, Debye-Ang**2):
  XXX=              0.0000  YYY=              1.1681  ZZZ=              2.2786  XYY=              0.0000
  XXY=              2.7058  XXZ=             -0.7925  XZZ=              0.0000  YZZ=              4.8776
  YYZ=              3.1280  XYZ=              0.0000
 Hexadecapole moment (field-independent basis, Debye-Ang**3):
 XXXX=           -199.9230 YYYY=           -160.4247 ZZZZ=            -52.2748 XXXY=              0.0000
 XXXZ=              0.0000 YYYX=              0.0000 YYYZ=              9.4862 ZZZX=              0.0000
 ZZZY=              3.3157 XXYY=            -61.5673 XXZZ=            -43.5145 YYZZ=            -32.0053
 XXYZ=              0.4899 YYXZ=              0.0000 ZZXY=              0.0000
 N-N= 1.341593748561D+02 E-N=-7.209192727295D+02  KE= 1.925382643225D+02
 No NMR shielding tensors so no spin-rotation constants.
 Leave Link  601 at Thu Mar 19 18:26:28 2026, MaxMem=   536870912 cpu:         0.0
 (Enter C:\G09W\l9999.exe)
 1|1|UNPC-DESKTOP-GS7R1K3|FOpt|RB3LYP|6-31G(d)|C3H8O1|1172|19-Mar-2026|
 0||#p opt B3LYP/6-31G(d)||2-propanol||0,1|C,-1.1548214942,-0.538352417
 ,-0.3805200763|C,0.0528750863,0.40122914,-0.3573117165|O,-0.2870059214
 ,1.6625002107,0.2258607837|C,1.2675239973,-0.2177746626,0.3379188239|H
 ,-2.004805758,-0.0533047364,-0.8707076326|H,-1.4565277284,-0.807433661
 2,0.6413404889|H,-0.9280313973,-1.4686789941,-0.9145626768|H,0.3256310
 501,0.6529558444,-1.3892814117|H,-0.5381211788,1.4922895415,1.14849071
 83|H,2.1021959986,0.4902235515,0.3473802047|H,1.0277732749,-0.47865650
 24,1.3781546784|H,1.5933150465,-1.1349993177,-0.1667611914||Version=EM
 64W-G09RevD.01|State=1-A|HF=-194.3534516|RMSD=2.854e-009|RMSF=1.410e-0
 05|Dipole=-0.0101876,-0.5668635,0.2872918|Quadrupole=0.1603905,-2.2662
 376,2.1058471,-0.0001117,-0.7749474,0.9806077|PG=C01 [X(C3H8O1)]||@


 THE ONLY EXISTING THINGS ARE ATOMS AND EMPTY SPACE;
 ALL ELSE IS MERE OPINION. -- DEMOCRITUS OF ABDERA D. 370 B.C.
 EXPERIMENTS ARE THE ONLY MEANS OF KNOWLEDGE AT OUR DISPOSAL
 THE REST IS POETRY, IMAGINATION. -- MAX PLANCK
 Job cpu time:       0 days  0 hours  0 minutes 43.0 seconds.
 File lengths (MBytes):  RWF=      5 Int=      0 D2E=      0 Chk=      2 Scr=      1
 Normal termination of Gaussian 09 at Thu Mar 19 18:26:29 2026.
