 Entering Gaussian System, Link 0=C:\G09W\g09.exe
 Input=ethane_rdkit.com
 Output=C:\workspace\delta_chem\benchmark_results\ethane\ethane_rdkit.out
 Initial command:
 C:\G09W\l1.exe ".\Gau-17420.inp" "C:\workspace\delta_chem\benchmark_results\ethane\ethane_rdkit.out" /scrdir=".\"
 Entering Link 1 = C:\G09W\l1.exe PID=     15696.
  
 Copyright (c) 1988,1990,1992,1993,1995,1998,2003,2009,2013,
            Gaussian, Inc.  All Rights Reserved.
  
 This is part of the Gaussian(R) 09 program.  It is based on
 the Gaussian(R) 03 system (copyright 2003, Gaussian, Inc.),
 the Gaussian(R) 98 system (copyright 1998, Gaussian, Inc.),
 the Gaussian(R) 94 system (copyright 1995, Gaussian, Inc.),
 the Gaussian 92(TM) system (copyright 1992, Gaussian, Inc.),
 the Gaussian 90(TM) system (copyright 1990, Gaussian, Inc.),
 the Gaussian 88(TM) system (copyright 1988, Gaussian, Inc.),
 the Gaussian 86(TM) system (copyright 1986, Carnegie Mellon
 University), and the Gaussian 82(TM) system (copyright 1983,
 Carnegie Mellon University). Gaussian is a federally registered
 trademark of Gaussian, Inc.
  
 This software contains proprietary and confidential information,
 including trade secrets, belonging to Gaussian, Inc.
  
 This software is provided under written license and may be
 used, copied, transmitted, or stored only in accord with that
 written license.
  
 The following legend is applicable only to US Government
 contracts under FAR:
  
                    RESTRICTED RIGHTS LEGEND
  
 Use, reproduction and disclosure by the US Government is
 subject to restrictions as set forth in subparagraphs (a)
 and (c) of the Commercial Computer Software - Restricted
 Rights clause in FAR 52.227-19.
  
 Gaussian, Inc.
 340 Quinnipiac St., Bldg. 40, Wallingford CT 06492
  
  
 ---------------------------------------------------------------
 Warning -- This program may not be used in any manner that
 competes with the business of Gaussian, Inc. or will provide
 assistance to any competitor of Gaussian, Inc.  The licensee
 of this program is prohibited from giving any competitor of
 Gaussian, Inc. access to this program.  By using this program,
 the user acknowledges that Gaussian, Inc. is engaged in the
 business of creating and licensing software in the field of
 computational chemistry and represents and warrants to the
 licensee that it is not a competitor of Gaussian, Inc. and that
 it will not use this program in any manner prohibited above.
 ---------------------------------------------------------------
  

 Cite this work as:
 Gaussian 09, Revision D.01,
 M. J. Frisch, G. W. Trucks, H. B. Schlegel, G. E. Scuseria, 
 M. A. Robb, J. R. Cheeseman, G. Scalmani, V. Barone, B. Mennucci, 
 G. A. Petersson, H. Nakatsuji, M. Caricato, X. Li, H. P. Hratchian, 
 A. F. Izmaylov, J. Bloino, G. Zheng, J. L. Sonnenberg, M. Hada, 
 M. Ehara, K. Toyota, R. Fukuda, J. Hasegawa, M. Ishida, T. Nakajima, 
 Y. Honda, O. Kitao, H. Nakai, T. Vreven, J. A. Montgomery, Jr., 
 J. E. Peralta, F. Ogliaro, M. Bearpark, J. J. Heyd, E. Brothers, 
 K. N. Kudin, V. N. Staroverov, T. Keith, R. Kobayashi, J. Normand, 
 K. Raghavachari, A. Rendell, J. C. Burant, S. S. Iyengar, J. Tomasi, 
 M. Cossi, N. Rega, J. M. Millam, M. Klene, J. E. Knox, J. B. Cross, 
 V. Bakken, C. Adamo, J. Jaramillo, R. Gomperts, R. E. Stratmann, 
 O. Yazyev, A. J. Austin, R. Cammi, C. Pomelli, J. W. Ochterski, 
 R. L. Martin, K. Morokuma, V. G. Zakrzewski, G. A. Voth, 
 P. Salvador, J. J. Dannenberg, S. Dapprich, A. D. Daniels, 
 O. Farkas, J. B. Foresman, J. V. Ortiz, J. Cioslowski, 
 and D. J. Fox, Gaussian, Inc., Wallingford CT, 2013.
 
 ******************************************
 Gaussian 09:  EM64W-G09RevD.01 13-Apr-2013
                19-Mar-2026 
 ******************************************
 %NProcShared=4
 Will use up to    4 processors via shared memory.
 %Mem=4GB
 %Chk=ethane_rdkit.chk
 ---------------------
 #p opt B3LYP/6-31G(d)
 ---------------------
 1/14=-1,18=20,19=15,26=3,38=1/1,3;
 2/9=110,12=2,17=6,18=5,40=1/2;
 3/5=1,6=6,7=1,11=2,16=1,25=1,30=1,71=1,74=-5/1,2,3;
 4//1;
 5/5=2,38=5/2;
 6/7=2,8=2,9=2,10=2,28=1/1;
 7//1,2,3,16;
 1/14=-1,18=20,19=15,26=3/3(2);
 2/9=110/2;
 99//99;
 2/9=110/2;
 3/5=1,6=6,7=1,11=2,16=1,25=1,30=1,71=1,74=-5/1,2,3;
 4/5=5,16=3,69=1/1;
 5/5=2,38=5/2;
 7//1,2,3,16;
 1/14=-1,18=20,19=15,26=3/3(-5);
 2/9=110/2;
 6/7=2,8=2,9=2,10=2,19=2,28=1/1;
 99/9=1/99;
 Leave Link    1 at Thu Mar 19 16:58:23 2026, MaxMem=   536870912 cpu:         0.0
 (Enter C:\G09W\l101.exe)
 --------------
 ethane [rdkit]
 --------------
 Symbolic Z-matrix:
 Charge =  0 Multiplicity = 1
 C                     0.75012  -0.0839    0.04319 
 C                    -0.75012   0.0839   -0.04319 
 H                     1.05003  -1.0636   -0.34056 
 H                     1.08686  -0.00261   1.08098 
 H                     1.25756   0.68654  -0.54498 
 H                    -1.08686   0.00261  -1.08098 
 H                    -1.25756  -0.68654   0.54498 
 H                    -1.05003   1.0636    0.34056 
 
 NAtoms=      8 NQM=        8 NQMF=       0 NMMI=      0 NMMIF=      0
                NMic=       0 NMicF=      0.
                    Isotopes and Nuclear Properties:
 (Nuclear quadrupole moments (NQMom) in fm**2, nuclear magnetic moments (NMagM)
  in nuclear magnetons)

  Atom         1           2           3           4           5           6           7           8
 IAtWgt=          12          12           1           1           1           1           1           1
 AtmWgt=  12.0000000  12.0000000   1.0078250   1.0078250   1.0078250   1.0078250   1.0078250   1.0078250
 NucSpn=           0           0           1           1           1           1           1           1
 AtZEff=   0.0000000   0.0000000   0.0000000   0.0000000   0.0000000   0.0000000   0.0000000   0.0000000
 NQMom=    0.0000000   0.0000000   0.0000000   0.0000000   0.0000000   0.0000000   0.0000000   0.0000000
 NMagM=    0.0000000   0.0000000   2.7928460   2.7928460   2.7928460   2.7928460   2.7928460   2.7928460
 AtZNuc=   6.0000000   6.0000000   1.0000000   1.0000000   1.0000000   1.0000000   1.0000000   1.0000000
 Leave Link  101 at Thu Mar 19 16:58:24 2026, MaxMem=   536870912 cpu:         0.0
 (Enter C:\G09W\l103.exe)

 GradGradGradGradGradGradGradGradGradGradGradGradGradGradGradGradGradGrad
 Berny optimization.
 Initialization pass.
                           ----------------------------
                           !    Initial Parameters    !
                           ! (Angstroms and Degrees)  !
 --------------------------                            --------------------------
 ! Name  Definition              Value          Derivative Info.                !
 --------------------------------------------------------------------------------
 ! R1    R(1,2)                  1.5121         estimate D2E/DX2                !
 ! R2    R(1,3)                  1.0941         estimate D2E/DX2                !
 ! R3    R(1,4)                  1.0941         estimate D2E/DX2                !
 ! R4    R(1,5)                  1.0941         estimate D2E/DX2                !
 ! R5    R(2,6)                  1.0941         estimate D2E/DX2                !
 ! R6    R(2,7)                  1.0941         estimate D2E/DX2                !
 ! R7    R(2,8)                  1.0941         estimate D2E/DX2                !
 ! A1    A(2,1,3)              110.5679         estimate D2E/DX2                !
 ! A2    A(2,1,4)              110.5679         estimate D2E/DX2                !
 ! A3    A(2,1,5)              110.568          estimate D2E/DX2                !
 ! A4    A(3,1,4)              108.3526         estimate D2E/DX2                !
 ! A5    A(3,1,5)              108.3526         estimate D2E/DX2                !
 ! A6    A(4,1,5)              108.3526         estimate D2E/DX2                !
 ! A7    A(1,2,6)              110.568          estimate D2E/DX2                !
 ! A8    A(1,2,7)              110.5679         estimate D2E/DX2                !
 ! A9    A(1,2,8)              110.568          estimate D2E/DX2                !
 ! A10   A(6,2,7)              108.3525         estimate D2E/DX2                !
 ! A11   A(6,2,8)              108.3526         estimate D2E/DX2                !
 ! A12   A(7,2,8)              108.3527         estimate D2E/DX2                !
 ! D1    D(3,1,2,6)            -59.9999         estimate D2E/DX2                !
 ! D2    D(3,1,2,7)             59.9999         estimate D2E/DX2                !
 ! D3    D(3,1,2,8)            180.0            estimate D2E/DX2                !
 ! D4    D(4,1,2,6)           -179.9999         estimate D2E/DX2                !
 ! D5    D(4,1,2,7)            -60.0            estimate D2E/DX2                !
 ! D6    D(4,1,2,8)             60.0            estimate D2E/DX2                !
 ! D7    D(5,1,2,6)             60.0001         estimate D2E/DX2                !
 ! D8    D(5,1,2,7)            179.9999         estimate D2E/DX2                !
 ! D9    D(5,1,2,8)            -60.0            estimate D2E/DX2                !
 --------------------------------------------------------------------------------
 Trust Radius=3.00D-01 FncErr=1.00D-07 GrdErr=1.00D-06
 Number of steps in this run=     38 maximum allowed number of steps=    100.
 GradGradGradGradGradGradGradGradGradGradGradGradGradGradGradGradGradGrad

 Leave Link  103 at Thu Mar 19 16:58:24 2026, MaxMem=   536870912 cpu:         0.0
 (Enter C:\G09W\l202.exe)
                          Input orientation:                          
 ---------------------------------------------------------------------
 Center     Atomic      Atomic             Coordinates (Angstroms)
 Number     Number       Type             X           Y           Z
 ---------------------------------------------------------------------
      1          6           0        0.750117   -0.083901    0.043188
      2          6           0       -0.750117    0.083902   -0.043188
      3          1           0        1.050032   -1.063598   -0.340563
      4          1           0        1.086857   -0.002614    1.080982
      5          1           0        1.257558    0.686540   -0.544984
      6          1           0       -1.086860    0.002613   -1.080982
      7          1           0       -1.257555   -0.686540    0.544983
      8          1           0       -1.050032    1.063598    0.340563
 ---------------------------------------------------------------------
                    Distance matrix (angstroms):
                    1          2          3          4          5
     1  C    0.000000
     2  C    1.512058   0.000000
     3  H    1.094084   2.155394   0.000000
     4  H    1.094083   2.155392   1.774213   0.000000
     5  H    1.094085   2.155396   1.774215   1.774215   0.000000
     6  H    2.155395   1.094084   2.500267   3.065805   2.500269
     7  H    2.155393   1.094084   2.500264   2.500263   3.065807
     8  H    2.155394   1.094083   3.065806   2.500265   2.500268
                    6          7          8
     6  H    0.000000
     7  H    1.774213   0.000000
     8  H    1.774214   1.774214   0.000000
 This structure is nearly, but not quite of a higher symmetry.
 Consider Symm=Loose if the higher symmetry is desired.
 Stoichiometry    C2H6
 Framework group  C1[X(C2H6)]
 Deg. of freedom    18
 Full point group                 C1      NOp   1
 Largest Abelian subgroup         C1      NOp   1
 Largest concise Abelian subgroup C1      NOp   1
                         Standard orientation:                         
 ---------------------------------------------------------------------
 Center     Atomic      Atomic             Coordinates (Angstroms)
 Number     Number       Type             X           Y           Z
 ---------------------------------------------------------------------
      1          6           0        0.046407    0.047032   -0.753136
      2          6           0       -0.046407   -0.047033    0.753136
      3          1           0        0.536890    0.978683   -1.050581
      4          1           0       -0.951165    0.024410   -1.201863
      5          1           0        0.624276   -0.790260   -1.155666
      6          1           0        0.951165   -0.024408    1.201866
      7          1           0       -0.624275    0.790260    1.155664
      8          1           0       -0.536890   -0.978682    1.050581
 ---------------------------------------------------------------------
 Rotational constants (GHZ):     79.6507848     20.4156202     20.4156170
 Leave Link  202 at Thu Mar 19 16:58:25 2026, MaxMem=   536870912 cpu:         0.0
 (Enter C:\G09W\l301.exe)
 Standard basis: 6-31G(d) (6D, 7F)
 Ernie: Thresh=  0.10000D-02 Tol=  0.10000D-05 Strict=F.
 There are    42 symmetry adapted cartesian basis functions of A   symmetry.
 There are    42 symmetry adapted basis functions of A   symmetry.
    42 basis functions,    80 primitive gaussians,    42 cartesian basis functions
     9 alpha electrons        9 beta electrons
       nuclear repulsion energy        42.4268814294 Hartrees.
 IExCor=  402 DFT=T Ex+Corr=B3LYP ExCW=0 ScaHFX=  0.200000
 ScaDFX=  0.800000  0.720000  1.000000  0.810000 ScalE2=  1.000000  1.000000
 IRadAn=      0 IRanWt=     -1 IRanGd=            0 ICorTp=0 IEmpDi=  4
 NAtoms=    8 NActive=    8 NUniq=    8 SFac= 1.00D+00 NAtFMM=   60 NAOKFM=F Big=F
 Integral buffers will be    131072 words long.
 Raffenetti 2 integral format.
 Two-electron integral symmetry is turned on.
 Leave Link  301 at Thu Mar 19 16:58:25 2026, MaxMem=   536870912 cpu:         0.0
 (Enter C:\G09W\l302.exe)
 NPDir=0 NMtPBC=     1 NCelOv=     1 NCel=       1 NClECP=     1 NCelD=      1
         NCelK=      1 NCelE2=     1 NClLst=     1 CellRange=     0.0.
 One-electron integrals computed using PRISM.
 NBasis=    42 RedAO= T EigKep=  7.99D-03  NBF=    42
 NBsUse=    42 1.00D-06 EigRej= -1.00D+00 NBFU=    42
 Precomputing XC quadrature grid using
 IXCGrd= 4 IRadAn=           0 IRanWt=          -1 IRanGd=           0 AccXCQ= 0.00D+00.
 Generated NRdTot=       0 NPtTot=           0 NUsed=           0 NTot=          32
 NSgBfM=    42    42    42    42    42 MxSgAt=     8 MxSgA2=     8.
 Leave Link  302 at Thu Mar 19 16:58:25 2026, MaxMem=   536870912 cpu:         0.0
 (Enter C:\G09W\l303.exe)
 DipDrv:  MaxL=1.
 Leave Link  303 at Thu Mar 19 16:58:25 2026, MaxMem=   536870912 cpu:         0.0
 (Enter C:\G09W\l401.exe)
 ExpMin= 1.61D-01 ExpMax= 3.05D+03 ExpMxC= 4.57D+02 IAcc=1 IRadAn=         1 AccDes= 0.00D+00
 Harris functional with IExCor=  402 and IRadAn=       1 diagonalized for initial guess.
 HarFok:  IExCor=  402 AccDes= 0.00D+00 IRadAn=         1 IDoV= 1 UseB2=F ITyADJ=14
 ICtDFT=  3500011 ScaDFX=  1.000000  1.000000  1.000000  1.000000
 FoFCou: FMM=F IPFlag=           0 FMFlag=      100000 FMFlg1=           0
         NFxFlg=           0 DoJE=T BraDBF=F KetDBF=T FulRan=T
         wScrn=  0.000000 ICntrl=     500 IOpCl=  0 I1Cent=   200000004 NGrid=           0
         NMat0=    1 NMatS0=      1 NMatT0=    0 NMatD0=    1 NMtDS0=    0 NMtDT0=    0
 Petite list used in FoFCou.
 Harris En= -79.8834678429846    
 JPrj=0 DoOrth=F DoCkMO=F.
 Leave Link  401 at Thu Mar 19 16:58:26 2026, MaxMem=   536870912 cpu:         0.0
 (Enter C:\G09W\l502.exe)
 Closed shell SCF:
 Using DIIS extrapolation, IDIIS=  1040.
 Integral symmetry usage will be decided dynamically.
 Keep R1 ints in memory in canonical form, NReq=1293450.
 IVT=       24424 IEndB=       24424 NGot=   536870912 MDV=   536438333
 LenX=   536438333 LenY=   536436128
 Requested convergence on RMS density matrix=1.00D-08 within 128 cycles.
 Requested convergence on MAX density matrix=1.00D-06.
 Requested convergence on             energy=1.00D-06.
 No special actions if energy rises.
 FoFCou: FMM=F IPFlag=           0 FMFlag=           0 FMFlg1=           0
         NFxFlg=           0 DoJE=F BraDBF=F KetDBF=F FulRan=T
         wScrn=  0.000000 ICntrl=     600 IOpCl=  0 I1Cent=           0 NGrid=           0
         NMat0=    1 NMatS0=    903 NMatT0=    0 NMatD0=    1 NMtDS0=    0 NMtDT0=    0
 Symmetry not used in FoFCou.
 Integral accuracy reduced to 1.0D-05 until final iterations.

 Cycle   1  Pass 0  IDiag  1:
 E= -79.7017939491426    
 DIIS: error= 6.36D-02 at cycle   1 NSaved=   1.
 NSaved= 1 IEnMin= 1 EnMin= -79.7017939491426     IErMin= 1 ErrMin= 6.36D-02
 ErrMax= 6.36D-02  0.00D+00 EMaxC= 1.00D-01 BMatC= 1.15D-01 BMatP= 1.15D-01
 IDIUse=3 WtCom= 3.64D-01 WtEn= 6.36D-01
 Coeff-Com:  0.100D+01
 Coeff-En:   0.100D+01
 Coeff:      0.100D+01
 Gap=     0.379 Goal=   None    Shift=    0.000
 GapD=    0.379 DampG=1.000 DampE=0.500 DampFc=0.5000 IDamp=-1.
 Damping current iteration by 5.00D-01
 RMSDP=1.66D-02 MaxDP=1.42D-01              OVMax= 1.87D-01

 Cycle   2  Pass 0  IDiag  1:
 E= -79.7590374325016     Delta-E=       -0.057243483359 Rises=F Damp=T
 DIIS: error= 1.17D-02 at cycle   2 NSaved=   2.
 NSaved= 2 IEnMin= 2 EnMin= -79.7590374325016     IErMin= 2 ErrMin= 1.17D-02
 ErrMax= 1.17D-02  0.00D+00 EMaxC= 1.00D-01 BMatC= 3.83D-03 BMatP= 1.15D-01
 IDIUse=3 WtCom= 8.83D-01 WtEn= 1.17D-01
 Coeff-Com:  0.856D-01 0.914D+00
 Coeff-En:   0.132D+00 0.868D+00
 Coeff:      0.911D-01 0.909D+00
 Gap=     0.466 Goal=   None    Shift=    0.000
 RMSDP=1.82D-03 MaxDP=1.34D-02 DE=-5.72D-02 OVMax= 9.64D-02

 Cycle   3  Pass 0  IDiag  1:
 E= -79.8298234789808     Delta-E=       -0.070786046479 Rises=F Damp=F
 DIIS: error= 2.07D-03 at cycle   3 NSaved=   3.
 NSaved= 3 IEnMin= 3 EnMin= -79.8298234789808     IErMin= 3 ErrMin= 2.07D-03
 ErrMax= 2.07D-03  0.00D+00 EMaxC= 1.00D-01 BMatC= 1.07D-04 BMatP= 3.83D-03
 IDIUse=3 WtCom= 9.79D-01 WtEn= 2.07D-02
 Coeff-Com:  0.926D-02 0.859D-01 0.905D+00
 Coeff-En:   0.000D+00 0.000D+00 0.100D+01
 Coeff:      0.907D-02 0.842D-01 0.907D+00
 Gap=     0.443 Goal=   None    Shift=    0.000
 RMSDP=2.73D-04 MaxDP=1.64D-03 DE=-7.08D-02 OVMax= 3.95D-03

 Cycle   4  Pass 0  IDiag  1:
 E= -79.8299135369720     Delta-E=       -0.000090057991 Rises=F Damp=F
 DIIS: error= 6.33D-04 at cycle   4 NSaved=   4.
 NSaved= 4 IEnMin= 4 EnMin= -79.8299135369720     IErMin= 4 ErrMin= 6.33D-04
 ErrMax= 6.33D-04  0.00D+00 EMaxC= 1.00D-01 BMatC= 7.81D-06 BMatP= 1.07D-04
 IDIUse=3 WtCom= 9.94D-01 WtEn= 6.33D-03
 Coeff-Com:  0.155D-02-0.530D-02 0.199D+00 0.805D+00
 Coeff-En:   0.000D+00 0.000D+00 0.000D+00 0.100D+01
 Coeff:      0.154D-02-0.526D-02 0.198D+00 0.806D+00
 Gap=     0.443 Goal=   None    Shift=    0.000
 RMSDP=5.98D-05 MaxDP=3.71D-04 DE=-9.01D-05 OVMax= 9.57D-04

 Cycle   5  Pass 0  IDiag  1:
 E= -79.8299206919684     Delta-E=       -0.000007154996 Rises=F Damp=F
 DIIS: error= 1.13D-05 at cycle   5 NSaved=   5.
 NSaved= 5 IEnMin= 5 EnMin= -79.8299206919684     IErMin= 5 ErrMin= 1.13D-05
 ErrMax= 1.13D-05  0.00D+00 EMaxC= 1.00D-01 BMatC= 4.91D-09 BMatP= 7.81D-06
 IDIUse=1 WtCom= 1.00D+00 WtEn= 0.00D+00
 Coeff-Com:  0.895D-04-0.213D-03-0.971D-02-0.261D-01 0.104D+01
 Coeff:      0.895D-04-0.213D-03-0.971D-02-0.261D-01 0.104D+01
 Gap=     0.443 Goal=   None    Shift=    0.000
 RMSDP=1.69D-06 MaxDP=1.66D-05 DE=-7.15D-06 OVMax= 2.65D-05

 Initial convergence to 1.0D-05 achieved.  Increase integral accuracy.
 Cycle   6  Pass 1  IDiag  1:
 E= -79.8299585938101     Delta-E=       -0.000037901842 Rises=F Damp=F
 DIIS: error= 4.30D-06 at cycle   1 NSaved=   1.
 NSaved= 1 IEnMin= 1 EnMin= -79.8299585938101     IErMin= 1 ErrMin= 4.30D-06
 ErrMax= 4.30D-06  0.00D+00 EMaxC= 1.00D-01 BMatC= 1.08D-09 BMatP= 1.08D-09
 IDIUse=1 WtCom= 1.00D+00 WtEn= 0.00D+00
 Coeff-Com:  0.100D+01
 Coeff:      0.100D+01
 Gap=     0.443 Goal=   None    Shift=    0.000
 RMSDP=1.69D-06 MaxDP=1.66D-05 DE=-3.79D-05 OVMax= 1.65D-05

 Cycle   7  Pass 1  IDiag  1:
 E= -79.8299585955891     Delta-E=       -0.000000001779 Rises=F Damp=F
 DIIS: error= 3.95D-07 at cycle   2 NSaved=   2.
 NSaved= 2 IEnMin= 2 EnMin= -79.8299585955891     IErMin= 2 ErrMin= 3.95D-07
 ErrMax= 3.95D-07  0.00D+00 EMaxC= 1.00D-01 BMatC= 7.24D-12 BMatP= 1.08D-09
 IDIUse=1 WtCom= 1.00D+00 WtEn= 0.00D+00
 Coeff-Com: -0.514D-01 0.105D+01
 Coeff:     -0.514D-01 0.105D+01
 Gap=     0.443 Goal=   None    Shift=    0.000
 RMSDP=1.54D-07 MaxDP=1.18D-06 DE=-1.78D-09 OVMax= 1.59D-06

 Cycle   8  Pass 1  IDiag  1:
 E= -79.8299585955998     Delta-E=       -0.000000000011 Rises=F Damp=F
 DIIS: error= 2.12D-07 at cycle   3 NSaved=   3.
 NSaved= 3 IEnMin= 3 EnMin= -79.8299585955998     IErMin= 3 ErrMin= 2.12D-07
 ErrMax= 2.12D-07  0.00D+00 EMaxC= 1.00D-01 BMatC= 1.64D-12 BMatP= 7.24D-12
 IDIUse=1 WtCom= 1.00D+00 WtEn= 0.00D+00
 Coeff-Com: -0.192D-01 0.355D+00 0.664D+00
 Coeff:     -0.192D-01 0.355D+00 0.664D+00
 Gap=     0.443 Goal=   None    Shift=    0.000
 RMSDP=3.73D-08 MaxDP=3.83D-07 DE=-1.07D-11 OVMax= 4.93D-07

 Cycle   9  Pass 1  IDiag  1:
 E= -79.8299585956009     Delta-E=       -0.000000000001 Rises=F Damp=F
 DIIS: error= 9.73D-08 at cycle   4 NSaved=   4.
 NSaved= 4 IEnMin= 4 EnMin= -79.8299585956009     IErMin= 4 ErrMin= 9.73D-08
 ErrMax= 9.73D-08  0.00D+00 EMaxC= 1.00D-01 BMatC= 3.21D-13 BMatP= 1.64D-12
 IDIUse=1 WtCom= 1.00D+00 WtEn= 0.00D+00
 Coeff-Com: -0.282D-02 0.363D-01 0.312D+00 0.655D+00
 Coeff:     -0.282D-02 0.363D-01 0.312D+00 0.655D+00
 Gap=     0.443 Goal=   None    Shift=    0.000
 RMSDP=1.28D-08 MaxDP=1.20D-07 DE=-1.17D-12 OVMax= 1.58D-07

 Cycle  10  Pass 1  IDiag  1:
 E= -79.8299585956012     Delta-E=        0.000000000000 Rises=F Damp=F
 DIIS: error= 6.33D-09 at cycle   5 NSaved=   5.
 NSaved= 5 IEnMin= 5 EnMin= -79.8299585956012     IErMin= 5 ErrMin= 6.33D-09
 ErrMax= 6.33D-09  0.00D+00 EMaxC= 1.00D-01 BMatC= 1.92D-15 BMatP= 3.21D-13
 IDIUse=1 WtCom= 1.00D+00 WtEn= 0.00D+00
 Coeff-Com:  0.930D-04-0.604D-02 0.354D-01 0.128D+00 0.843D+00
 Coeff:      0.930D-04-0.604D-02 0.354D-01 0.128D+00 0.843D+00
 Gap=     0.443 Goal=   None    Shift=    0.000
 RMSDP=1.05D-09 MaxDP=6.59D-09 DE=-2.84D-13 OVMax= 1.49D-08

 SCF Done:  E(RB3LYP) =  -79.8299585956     A.U. after   10 cycles
            NFock= 10  Conv=0.11D-08     -V/T= 2.0102
 KE= 7.902717723899D+01 PE=-2.686986526207D+02 EE= 6.741463535674D+01
 Leave Link  502 at Thu Mar 19 16:58:27 2026, MaxMem=   536870912 cpu:         1.0
 (Enter C:\G09W\l601.exe)
 Copying SCF densities to generalized density rwf, IOpCl= 0 IROHF=0.

 **********************************************************************

            Population analysis using the SCF density.

 **********************************************************************

 Orbital symmetries:
       Occupied  (A) (A) (A) (A) (A) (A) (A) (A) (A)
       Virtual   (A) (A) (A) (A) (A) (A) (A) (A) (A) (A) (A) (A)
                 (A) (A) (A) (A) (A) (A) (A) (A) (A) (A) (A) (A)
                 (A) (A) (A) (A) (A) (A) (A) (A) (A)
 The electronic state is 1-A.
 Alpha  occ. eigenvalues --  -10.16994 -10.16970  -0.75211  -0.60907  -0.43410
 Alpha  occ. eigenvalues --   -0.43409  -0.36171  -0.33945  -0.33945
 Alpha virt. eigenvalues --    0.10359   0.16016   0.16461   0.16461   0.18959
 Alpha virt. eigenvalues --    0.18959   0.24685   0.50601   0.54968   0.54969
 Alpha virt. eigenvalues --    0.63020   0.63020   0.67901   0.88128   0.88128
 Alpha virt. eigenvalues --    0.90521   0.92611   0.92611   0.98340   1.06987
 Alpha virt. eigenvalues --    1.44474   1.52070   1.52071   1.95763   1.99739
 Alpha virt. eigenvalues --    1.99739   2.28167   2.28167   2.33022   2.33022
 Alpha virt. eigenvalues --    2.60050   4.15477   4.36712
          Condensed to atoms (all electrons):
               1          2          3          4          5          6
     1  C    5.011695   0.378273   0.383793   0.383794   0.383793  -0.036765
     2  C    0.378273   5.011695  -0.036766  -0.036765  -0.036767   0.383793
     3  H    0.383793  -0.036766   0.575247  -0.031479  -0.031480  -0.004065
     4  H    0.383794  -0.036765  -0.031479   0.575242  -0.031479   0.005133
     5  H    0.383793  -0.036767  -0.031480  -0.031479   0.575249  -0.004065
     6  H   -0.036765   0.383793  -0.004065   0.005133  -0.004065   0.575242
     7  H   -0.036767   0.383793  -0.004065  -0.004065   0.005133  -0.031479
     8  H   -0.036766   0.383793   0.005133  -0.004065  -0.004065  -0.031479
               7          8
     1  C   -0.036767  -0.036766
     2  C    0.383793   0.383793
     3  H   -0.004065   0.005133
     4  H   -0.004065  -0.004065
     5  H    0.005133  -0.004065
     6  H   -0.031479  -0.031479
     7  H    0.575249  -0.031480
     8  H   -0.031480   0.575247
 Mulliken charges:
               1
     1  C   -0.431049
     2  C   -0.431049
     3  H    0.143682
     4  H    0.143686
     5  H    0.143681
     6  H    0.143686
     7  H    0.143681
     8  H    0.143682
 Sum of Mulliken charges =   0.00000
 Mulliken charges with hydrogens summed into heavy atoms:
               1
     1  C    0.000000
     2  C    0.000000
 Electronic spatial extent (au):  <R**2>=            108.0936
 Charge=              0.0000 electrons
 Dipole moment (field-independent basis, Debye):
    X=              0.0000    Y=              0.0000    Z=              0.0000  Tot=              0.0000
 Quadrupole moment (field-independent basis, Debye-Ang):
   XX=            -14.6508   YY=            -14.6509   ZZ=            -15.4238
   XY=             -0.0030   XZ=              0.0478   YZ=              0.0484
 Traceless Quadrupole moment (field-independent basis, Debye-Ang):
   XX=              0.2577   YY=              0.2576   ZZ=             -0.5153
   XY=             -0.0030   XZ=              0.0478   YZ=              0.0484
 Octapole moment (field-independent basis, Debye-Ang**2):
  XXX=              0.0000  YYY=              0.0000  ZZZ=              0.0000  XYY=              0.0000
  XXY=              0.0000  XXZ=              0.0000  XZZ=              0.0000  YZZ=              0.0000
  YYZ=              0.0000  XYZ=              0.0000
 Hexadecapole moment (field-independent basis, Debye-Ang**3):
 XXXX=            -29.0939 YYYY=            -28.7755 ZZZZ=            -90.4091 XXXY=             -0.2102
 XXXZ=              2.8548 YYYX=              0.1192 YYYZ=              1.5948 ZZZX=              2.0983
 ZZZY=              2.0963 XXYY=             -9.4827 XXZZ=            -18.7001 YYZZ=            -19.0259
 XXYZ=              0.7508 YYXZ=             -0.5700 ZZXY=             -0.1826
 N-N= 4.242688142941D+01 E-N=-2.686986528517D+02  KE= 7.902717723899D+01
 No NMR shielding tensors so no spin-rotation constants.
 Leave Link  601 at Thu Mar 19 16:58:28 2026, MaxMem=   536870912 cpu:         1.0
 (Enter C:\G09W\l701.exe)
 Compute integral first derivatives.
 ... and contract with generalized density number  0.
 Leave Link  701 at Thu Mar 19 16:58:28 2026, MaxMem=   536870912 cpu:         0.0
 (Enter C:\G09W\l702.exe)
 L702 exits ... SP integral derivatives will be done elsewhere.
 Leave Link  702 at Thu Mar 19 16:58:28 2026, MaxMem=   536870912 cpu:         0.0
 (Enter C:\G09W\l703.exe)
 Compute integral first derivatives, UseDBF=F ICtDFT=           0.
 Integral derivatives from FoFJK, PRISM(SPDF).
 Calling FoFJK, ICntrl=      2127 FMM=F ISym2X=0 I1Cent= 0 IOpClX= 0 NMat=1 NMatS=1 NMatT=0.
 FoFJK:  IHMeth= 1 ICntrl=    2127 DoSepK=F KAlg= 0 I1Cent=   0 FoldK=F
 IRaf=         0 NMat=   1 IRICut=       1 DoRegI=T DoRafI=F ISym2E= 0.
 FoFCou: FMM=F IPFlag=           0 FMFlag=      100000 FMFlg1=         800
         NFxFlg=           0 DoJE=F BraDBF=F KetDBF=F FulRan=T
         wScrn=  0.000000 ICntrl=    2127 IOpCl=  0 I1Cent=           0 NGrid=           0
         NMat0=    1 NMatS0=      1 NMatT0=    0 NMatD0=    1 NMtDS0=    0 NMtDT0=    0
 Symmetry not used in FoFCou.
 Leave Link  703 at Thu Mar 19 16:58:29 2026, MaxMem=   536870912 cpu:         0.0
 (Enter C:\G09W\l716.exe)
 Dipole        =-6.57128179D-07 4.64526495D-07 1.87055258D-07
 ***** Axes restored to original set *****
 -------------------------------------------------------------------
 Center     Atomic                   Forces (Hartrees/Bohr)
 Number     Number              X              Y              Z
 -------------------------------------------------------------------
      1        6           0.004922063   -0.000552452    0.000271255
      2        6          -0.004921791    0.000552168   -0.000272619
      3        1           0.002811947   -0.000625429    0.000026823
      4        1           0.002856476   -0.000279060    0.000502080
      5        1           0.002880629   -0.000050761   -0.000038593
      6        1          -0.002856040    0.000279291   -0.000501528
      7        1          -0.002881116    0.000050367    0.000039203
      8        1          -0.002812168    0.000625876   -0.000026621
 -------------------------------------------------------------------
 Cartesian Forces:  Max     0.004922063 RMS     0.002035019
 Leave Link  716 at Thu Mar 19 16:58:29 2026, MaxMem=   536870912 cpu:         0.0
 (Enter C:\G09W\l103.exe)

 GradGradGradGradGradGradGradGradGradGradGradGradGradGradGradGradGradGrad
 Berny optimization.
 FormGI is forming the generalized inverse of G from B-inverse, IUseBI=4.
 Internal  Forces:  Max     0.013576594 RMS     0.003141262
 Search for a local minimum.
 Step number   1 out of a maximum of   38
 All quantities printed in internal units (Hartrees-Bohrs-Radians)
 RMS Force = .31413D-02 SwitMx=.10000D-02 MixMth= 1
 Mixed Optimization -- RFO/linear search
 Second derivative matrix not updated -- first step.
 ITU=  0
     Eigenvalues ---    0.00606   0.05762   0.05762   0.05762   0.05762
     Eigenvalues ---    0.16000   0.16000   0.16000   0.16000   0.16000
     Eigenvalues ---    0.16000   0.31144   0.34345   0.34345   0.34345
     Eigenvalues ---    0.34345   0.34345   0.34345
 RFO step:  Lambda=-1.12562831D-03 EMin= 6.06437442D-03
 Linear search not attempted -- first point.
 Iteration  1 RMS(Cart)=  0.02568350 RMS(Int)=  0.00014189
 Iteration  2 RMS(Cart)=  0.00010078 RMS(Int)=  0.00007916
 Iteration  3 RMS(Cart)=  0.00000000 RMS(Int)=  0.00007916
 ITry= 1 IFail=0 DXMaxC= 5.36D-02 DCOld= 1.00D+10 DXMaxT= 3.00D-01 DXLimC= 3.00D+00 Rises=F
 Variable       Old X    -DE/DX   Delta X   Delta X   Delta X     New X
                                 (Linear)    (Quad)   (Total)
    R1        2.85738   0.01358   0.00000   0.04344   0.04344   2.90081
    R2        2.06752   0.00132   0.00000   0.00383   0.00383   2.07135
    R3        2.06752   0.00134   0.00000   0.00389   0.00389   2.07141
    R4        2.06752   0.00132   0.00000   0.00383   0.00383   2.07135
    R5        2.06752   0.00134   0.00000   0.00389   0.00389   2.07141
    R6        2.06752   0.00132   0.00000   0.00383   0.00383   2.07135
    R7        2.06752   0.00132   0.00000   0.00383   0.00383   2.07135
    A1        1.92977   0.00255   0.00000   0.01580   0.01567   1.94545
    A2        1.92977   0.00257   0.00000   0.01595   0.01582   1.94560
    A3        1.92978   0.00255   0.00000   0.01580   0.01568   1.94545
    A4        1.89111  -0.00266   0.00000  -0.01649  -0.01661   1.87450
    A5        1.89111  -0.00265   0.00000  -0.01643  -0.01654   1.87457
    A6        1.89111  -0.00266   0.00000  -0.01651  -0.01663   1.87448
    A7        1.92978   0.00257   0.00000   0.01595   0.01582   1.94560
    A8        1.92977   0.00255   0.00000   0.01580   0.01568   1.94545
    A9        1.92977   0.00255   0.00000   0.01580   0.01567   1.94545
   A10        1.89111  -0.00266   0.00000  -0.01651  -0.01663   1.87448
   A11        1.89111  -0.00266   0.00000  -0.01650  -0.01661   1.87450
   A12        1.89111  -0.00265   0.00000  -0.01643  -0.01654   1.87457
    D1       -1.04720   0.00000   0.00000   0.00001   0.00001  -1.04719
    D2        1.04720   0.00000   0.00000   0.00000   0.00000   1.04720
    D3        3.14159   0.00000   0.00000   0.00000   0.00000  -3.14159
    D4       -3.14159   0.00000   0.00000   0.00000   0.00000  -3.14159
    D5       -1.04720   0.00000   0.00000  -0.00001  -0.00001  -1.04720
    D6        1.04720   0.00000   0.00000  -0.00001  -0.00001   1.04719
    D7        1.04720   0.00000   0.00000   0.00001   0.00001   1.04720
    D8        3.14159   0.00000   0.00000   0.00000   0.00000   3.14159
    D9       -1.04720   0.00000   0.00000   0.00000   0.00000  -1.04720
         Item               Value     Threshold  Converged?
 Maximum Force            0.013577     0.000450     NO 
 RMS     Force            0.003141     0.000300     NO 
 Maximum Displacement     0.053617     0.001800     NO 
 RMS     Displacement     0.025698     0.001200     NO 
 Predicted change in Energy=-5.656765D-04
 Lowest energy point so far.  Saving SCF results.
 GradGradGradGradGradGradGradGradGradGradGradGradGradGradGradGradGradGrad

 Leave Link  103 at Thu Mar 19 16:58:29 2026, MaxMem=   536870912 cpu:         0.0
 (Enter C:\G09W\l202.exe)
                          Input orientation:                          
 ---------------------------------------------------------------------
 Center     Atomic      Atomic             Coordinates (Angstroms)
 Number     Number       Type             X           Y           Z
 ---------------------------------------------------------------------
      1          6           0        0.761518   -0.085174    0.043870
      2          6           0       -0.761518    0.085174   -0.043870
      3          1           0        1.078405   -1.062827   -0.337225
      4          1           0        1.115193   -0.006272    1.078381
      5          1           0        1.285071    0.680022   -0.540789
      6          1           0       -1.115193    0.006272   -1.078381
      7          1           0       -1.285070   -0.680022    0.540788
      8          1           0       -1.078405    1.062827    0.337225
 ---------------------------------------------------------------------
                    Distance matrix (angstroms):
                    1          2          3          4          5
     1  C    0.000000
     2  C    1.535043   0.000000
     3  H    1.096110   2.188443   0.000000
     4  H    1.096141   2.188574   1.766806   0.000000
     5  H    1.096110   2.188447   1.766825   1.766796   0.000000
     6  H    2.188574   1.096141   2.550325   3.102644   2.550335
     7  H    2.188446   1.096110   2.550189   2.550335   3.102443
     8  H    2.188443   1.096109   3.102438   2.550325   2.550189
                    6          7          8
     6  H    0.000000
     7  H    1.766796   0.000000
     8  H    1.766806   1.766825   0.000000
 Stoichiometry    C2H6
 Framework group  C1[X(C2H6)]
 Deg. of freedom    18
 Full point group                 C1      NOp   1
 RotChk:  IX=2 Diff= 1.95D+00
 Largest Abelian subgroup         C1      NOp   1
 Largest concise Abelian subgroup C1      NOp   1
                         Standard orientation:                         
 ---------------------------------------------------------------------
 Center     Atomic      Atomic             Coordinates (Angstroms)
 Number     Number       Type             X           Y           Z
 ---------------------------------------------------------------------
      1          6           0        0.767522    0.000004    0.000016
      2          6           0       -0.767522   -0.000004   -0.000016
      3          1           0        1.168627    0.955431    0.357408
      4          1           0        1.168826   -0.168206   -1.006059
      5          1           0        1.168636   -0.787207    0.648754
      6          1           0       -1.168826    0.168206    1.006058
      7          1           0       -1.168636    0.787208   -0.648754
      8          1           0       -1.168628   -0.955431   -0.357408
 ---------------------------------------------------------------------
 Rotational constants (GHZ):     80.3198471     19.7851387     19.7850434
 Leave Link  202 at Thu Mar 19 16:58:30 2026, MaxMem=   536870912 cpu:         0.0
 (Enter C:\G09W\l301.exe)
 Standard basis: 6-31G(d) (6D, 7F)
 Ernie: Thresh=  0.10000D-02 Tol=  0.10000D-05 Strict=F.
 There are    42 symmetry adapted cartesian basis functions of A   symmetry.
 There are    42 symmetry adapted basis functions of A   symmetry.
    42 basis functions,    80 primitive gaussians,    42 cartesian basis functions
     9 alpha electrons        9 beta electrons
       nuclear repulsion energy        42.0487019596 Hartrees.
 IExCor=  402 DFT=T Ex+Corr=B3LYP ExCW=0 ScaHFX=  0.200000
 ScaDFX=  0.800000  0.720000  1.000000  0.810000 ScalE2=  1.000000  1.000000
 IRadAn=      0 IRanWt=     -1 IRanGd=            0 ICorTp=0 IEmpDi=  4
 NAtoms=    8 NActive=    8 NUniq=    8 SFac= 1.00D+00 NAtFMM=   60 NAOKFM=F Big=F
 Integral buffers will be    131072 words long.
 Raffenetti 2 integral format.
 Two-electron integral symmetry is turned on.
 Leave Link  301 at Thu Mar 19 16:58:30 2026, MaxMem=   536870912 cpu:         0.0
 (Enter C:\G09W\l302.exe)
 NPDir=0 NMtPBC=     1 NCelOv=     1 NCel=       1 NClECP=     1 NCelD=      1
         NCelK=      1 NCelE2=     1 NClLst=     1 CellRange=     0.0.
 One-electron integrals computed using PRISM.
 NBasis=    42 RedAO= T EigKep=  8.59D-03  NBF=    42
 NBsUse=    42 1.00D-06 EigRej= -1.00D+00 NBFU=    42
 Precomputing XC quadrature grid using
 IXCGrd= 4 IRadAn=           0 IRanWt=          -1 IRanGd=           0 AccXCQ= 0.00D+00.
 Generated NRdTot=       0 NPtTot=           0 NUsed=           0 NTot=          32
 NSgBfM=    42    42    42    42    42 MxSgAt=     8 MxSgA2=     8.
 Leave Link  302 at Thu Mar 19 16:58:30 2026, MaxMem=   536870912 cpu:         0.0
 (Enter C:\G09W\l303.exe)
 DipDrv:  MaxL=1.
 Leave Link  303 at Thu Mar 19 16:58:30 2026, MaxMem=   536870912 cpu:         0.0
 (Enter C:\G09W\l401.exe)
 Initial guess from the checkpoint file:  "ethane_rdkit.chk"
 B after Tr=     0.000000    0.000000    0.000000
         Rot=    0.725566    0.064986    0.684828   -0.018470 Ang=  86.97 deg.
 Guess basis will be translated and rotated to current coordinates.
 JPrj=2 DoOrth=T DoCkMO=T.
 Generating alternative initial guess.
 ExpMin= 1.61D-01 ExpMax= 3.05D+03 ExpMxC= 4.57D+02 IAcc=1 IRadAn=         1 AccDes= 0.00D+00
 Harris functional with IExCor=  402 and IRadAn=       1 diagonalized for initial guess.
 HarFok:  IExCor=  402 AccDes= 0.00D+00 IRadAn=         1 IDoV= 1 UseB2=F ITyADJ=14
 ICtDFT=  3500011 ScaDFX=  1.000000  1.000000  1.000000  1.000000
 FoFCou: FMM=F IPFlag=           0 FMFlag=      100000 FMFlg1=           0
         NFxFlg=           0 DoJE=T BraDBF=F KetDBF=T FulRan=T
         wScrn=  0.000000 ICntrl=     500 IOpCl=  0 I1Cent=   200000004 NGrid=           0
         NMat0=    1 NMatS0=      1 NMatT0=    0 NMatD0=    1 NMtDS0=    0 NMtDT0=    0
 Petite list used in FoFCou.
 Harris En= -79.8811616196152    
 Leave Link  401 at Thu Mar 19 16:58:30 2026, MaxMem=   536870912 cpu:         0.0
 (Enter C:\G09W\l502.exe)
 Closed shell SCF:
 Using DIIS extrapolation, IDIIS=  1040.
 Integral symmetry usage will be decided dynamically.
 Keep R1 ints in memory in canonical form, NReq=1293450.
 IVT=       24424 IEndB=       24424 NGot=   536870912 MDV=   536438333
 LenX=   536438333 LenY=   536436128
 Requested convergence on RMS density matrix=1.00D-08 within 128 cycles.
 Requested convergence on MAX density matrix=1.00D-06.
 Requested convergence on             energy=1.00D-06.
 No special actions if energy rises.
 FoFCou: FMM=F IPFlag=           0 FMFlag=           0 FMFlg1=           0
         NFxFlg=           0 DoJE=F BraDBF=F KetDBF=F FulRan=T
         wScrn=  0.000000 ICntrl=     600 IOpCl=  0 I1Cent=           0 NGrid=           0
         NMat0=    1 NMatS0=    903 NMatT0=    0 NMatD0=    1 NMtDS0=    0 NMtDT0=    0
 Symmetry not used in FoFCou.
 Integral accuracy reduced to 1.0D-05 until final iterations.

 Cycle   1  Pass 0  IDiag  1:
 E= -79.8302667730873    
 DIIS: error= 2.36D-03 at cycle   1 NSaved=   1.
 NSaved= 1 IEnMin= 1 EnMin= -79.8302667730873     IErMin= 1 ErrMin= 2.36D-03
 ErrMax= 2.36D-03  0.00D+00 EMaxC= 1.00D-01 BMatC= 1.12D-04 BMatP= 1.12D-04
 IDIUse=3 WtCom= 9.76D-01 WtEn= 2.36D-02
 Coeff-Com:  0.100D+01
 Coeff-En:   0.100D+01
 Coeff:      0.100D+01
 Gap=     2.104 Goal=   None    Shift=    0.000
 GapD=    2.104 DampG=2.000 DampE=1.000 DampFc=2.0000 IDamp=-1.
 RMSDP=3.11D-04 MaxDP=1.60D-03              OVMax= 4.59D-03

 Cycle   2  Pass 0  IDiag  1:
 E= -79.8303807762745     Delta-E=       -0.000114003187 Rises=F Damp=F
 DIIS: error= 7.76D-04 at cycle   2 NSaved=   2.
 NSaved= 2 IEnMin= 2 EnMin= -79.8303807762745     IErMin= 2 ErrMin= 7.76D-04
 ErrMax= 7.76D-04  0.00D+00 EMaxC= 1.00D-01 BMatC= 2.08D-05 BMatP= 1.12D-04
 IDIUse=3 WtCom= 9.92D-01 WtEn= 7.76D-03
 Coeff-Com:  0.246D+00 0.754D+00
 Coeff-En:   0.000D+00 0.100D+01
 Coeff:      0.244D+00 0.756D+00
 Gap=     0.446 Goal=   None    Shift=    0.000
 RMSDP=1.40D-04 MaxDP=1.23D-03 DE=-1.14D-04 OVMax= 1.66D-03

 Cycle   3  Pass 0  IDiag  1:
 E= -79.8303937294431     Delta-E=       -0.000012953169 Rises=F Damp=F
 DIIS: error= 4.71D-04 at cycle   3 NSaved=   3.
 NSaved= 3 IEnMin= 3 EnMin= -79.8303937294431     IErMin= 3 ErrMin= 4.71D-04
 ErrMax= 4.71D-04  0.00D+00 EMaxC= 1.00D-01 BMatC= 7.35D-06 BMatP= 2.08D-05
 IDIUse=3 WtCom= 9.95D-01 WtEn= 4.71D-03
 Coeff-Com:  0.205D-01 0.374D+00 0.606D+00
 Coeff-En:   0.000D+00 0.256D+00 0.744D+00
 Coeff:      0.204D-01 0.373D+00 0.607D+00
 Gap=     0.445 Goal=   None    Shift=    0.000
 RMSDP=5.96D-05 MaxDP=5.68D-04 DE=-1.30D-05 OVMax= 7.32D-04

 Cycle   4  Pass 0  IDiag  1:
 E= -79.8304011506411     Delta-E=       -0.000007421198 Rises=F Damp=F
 DIIS: error= 5.67D-05 at cycle   4 NSaved=   4.
 NSaved= 4 IEnMin= 4 EnMin= -79.8304011506411     IErMin= 4 ErrMin= 5.67D-05
 ErrMax= 5.67D-05  0.00D+00 EMaxC= 1.00D-01 BMatC= 1.01D-07 BMatP= 7.35D-06
 IDIUse=1 WtCom= 1.00D+00 WtEn= 0.00D+00
 Coeff-Com: -0.693D-02 0.672D-01 0.177D+00 0.762D+00
 Coeff:     -0.693D-02 0.672D-01 0.177D+00 0.762D+00
 Gap=     0.445 Goal=   None    Shift=    0.000
 RMSDP=7.38D-06 MaxDP=5.31D-05 DE=-7.42D-06 OVMax= 8.78D-05

 Initial convergence to 1.0D-05 achieved.  Increase integral accuracy.
 Cycle   5  Pass 1  IDiag  1:
 E= -79.8304025978518     Delta-E=       -0.000001447211 Rises=F Damp=F
 DIIS: error= 2.40D-06 at cycle   1 NSaved=   1.
 NSaved= 1 IEnMin= 1 EnMin= -79.8304025978518     IErMin= 1 ErrMin= 2.40D-06
 ErrMax= 2.40D-06  0.00D+00 EMaxC= 1.00D-01 BMatC= 5.29D-10 BMatP= 5.29D-10
 IDIUse=1 WtCom= 1.00D+00 WtEn= 0.00D+00
 Coeff-Com:  0.100D+01
 Coeff:      0.100D+01
 Gap=     0.445 Goal=   None    Shift=    0.000
 RMSDP=7.38D-06 MaxDP=5.31D-05 DE=-1.45D-06 OVMax= 1.06D-05

 Cycle   6  Pass 1  IDiag  1:
 E= -79.8304025987116     Delta-E=       -0.000000000860 Rises=F Damp=F
 DIIS: error= 6.58D-07 at cycle   2 NSaved=   2.
 NSaved= 2 IEnMin= 2 EnMin= -79.8304025987116     IErMin= 2 ErrMin= 6.58D-07
 ErrMax= 6.58D-07  0.00D+00 EMaxC= 1.00D-01 BMatC= 1.23D-11 BMatP= 5.29D-10
 IDIUse=1 WtCom= 1.00D+00 WtEn= 0.00D+00
 Coeff-Com:  0.118D-01 0.988D+00
 Coeff:      0.118D-01 0.988D+00
 Gap=     0.445 Goal=   None    Shift=    0.000
 RMSDP=1.59D-07 MaxDP=9.04D-07 DE=-8.60D-10 OVMax= 1.98D-06

 Cycle   7  Pass 1  IDiag  1:
 E= -79.8304025987208     Delta-E=       -0.000000000009 Rises=F Damp=F
 DIIS: error= 4.23D-07 at cycle   3 NSaved=   3.
 NSaved= 3 IEnMin= 3 EnMin= -79.8304025987208     IErMin= 3 ErrMin= 4.23D-07
 ErrMax= 4.23D-07  0.00D+00 EMaxC= 1.00D-01 BMatC= 7.05D-12 BMatP= 1.23D-11
 IDIUse=1 WtCom= 1.00D+00 WtEn= 0.00D+00
 Coeff-Com: -0.202D-01 0.425D+00 0.595D+00
 Coeff:     -0.202D-01 0.425D+00 0.595D+00
 Gap=     0.445 Goal=   None    Shift=    0.000
 RMSDP=6.60D-08 MaxDP=6.05D-07 DE=-9.18D-12 OVMax= 8.00D-07

 Cycle   8  Pass 1  IDiag  1:
 E= -79.8304025987272     Delta-E=       -0.000000000006 Rises=F Damp=F
 DIIS: error= 1.27D-07 at cycle   4 NSaved=   4.
 NSaved= 4 IEnMin= 4 EnMin= -79.8304025987272     IErMin= 4 ErrMin= 1.27D-07
 ErrMax= 1.27D-07  0.00D+00 EMaxC= 1.00D-01 BMatC= 4.89D-13 BMatP= 7.05D-12
 IDIUse=1 WtCom= 1.00D+00 WtEn= 0.00D+00
 Coeff-Com: -0.759D-02 0.106D+00 0.263D+00 0.639D+00
 Coeff:     -0.759D-02 0.106D+00 0.263D+00 0.639D+00
 Gap=     0.445 Goal=   None    Shift=    0.000
 RMSDP=1.52D-08 MaxDP=1.40D-07 DE=-6.45D-12 OVMax= 1.85D-07

 Cycle   9  Pass 1  IDiag  1:
 E= -79.8304025987271     Delta-E=        0.000000000000 Rises=F Damp=F
 DIIS: error= 4.96D-09 at cycle   5 NSaved=   5.
 NSaved= 5 IEnMin= 4 EnMin= -79.8304025987272     IErMin= 5 ErrMin= 4.96D-09
 ErrMax= 4.96D-09  0.00D+00 EMaxC= 1.00D-01 BMatC= 8.20D-16 BMatP= 4.89D-13
 IDIUse=1 WtCom= 1.00D+00 WtEn= 0.00D+00
 Coeff-Com: -0.116D-03-0.394D-02 0.455D-02 0.381D-01 0.961D+00
 Coeff:     -0.116D-03-0.394D-02 0.455D-02 0.381D-01 0.961D+00
 Gap=     0.445 Goal=   None    Shift=    0.000
 RMSDP=1.13D-09 MaxDP=6.18D-09 DE= 1.71D-13 OVMax= 1.21D-08

 SCF Done:  E(RB3LYP) =  -79.8304025987     A.U. after    9 cycles
            NFock=  9  Conv=0.11D-08     -V/T= 2.0109
 KE= 7.896725110043D+01 PE=-2.678975872738D+02 EE= 6.705123161511D+01
 Leave Link  502 at Thu Mar 19 16:58:32 2026, MaxMem=   536870912 cpu:         1.0
 (Enter C:\G09W\l701.exe)
 Compute integral first derivatives.
 ... and contract with generalized density number  0.
 Leave Link  701 at Thu Mar 19 16:58:32 2026, MaxMem=   536870912 cpu:         0.0
 (Enter C:\G09W\l702.exe)
 L702 exits ... SP integral derivatives will be done elsewhere.
 Leave Link  702 at Thu Mar 19 16:58:32 2026, MaxMem=   536870912 cpu:         0.0
 (Enter C:\G09W\l703.exe)
 Compute integral first derivatives, UseDBF=F ICtDFT=           0.
 Integral derivatives from FoFJK, PRISM(SPDF).
 Calling FoFJK, ICntrl=      2127 FMM=F ISym2X=0 I1Cent= 0 IOpClX= 0 NMat=1 NMatS=1 NMatT=0.
 FoFJK:  IHMeth= 1 ICntrl=    2127 DoSepK=F KAlg= 0 I1Cent=   0 FoldK=F
 IRaf=         0 NMat=   1 IRICut=       1 DoRegI=T DoRafI=F ISym2E= 0.
 FoFCou: FMM=F IPFlag=           0 FMFlag=      100000 FMFlg1=         800
         NFxFlg=           0 DoJE=F BraDBF=F KetDBF=F FulRan=T
         wScrn=  0.000000 ICntrl=    2127 IOpCl=  0 I1Cent=           0 NGrid=           0
         NMat0=    1 NMatS0=      1 NMatT0=    0 NMatD0=    1 NMtDS0=    0 NMtDT0=    0
 Symmetry not used in FoFCou.
 Leave Link  703 at Thu Mar 19 16:58:33 2026, MaxMem=   536870912 cpu:         0.0
 (Enter C:\G09W\l716.exe)
 Dipole        = 3.13013615D-09 5.68931535D-08 3.85359256D-09
 ***** Axes restored to original set *****
 -------------------------------------------------------------------
 Center     Atomic                   Forces (Hartrees/Bohr)
 Number     Number              X              Y              Z
 -------------------------------------------------------------------
      1        6          -0.001635992    0.000177457   -0.000097820
      2        6           0.001636001   -0.000177576    0.000097736
      3        1          -0.000395277   -0.000129772   -0.000091538
      4        1          -0.000432206    0.000076701    0.000145622
      5        1          -0.000369106    0.000190114   -0.000134065
      6        1           0.000432252   -0.000076669   -0.000145613
      7        1           0.000369087   -0.000190045    0.000134099
      8        1           0.000395241    0.000129789    0.000091578
 -------------------------------------------------------------------
 Cartesian Forces:  Max     0.001636001 RMS     0.000524663
 Leave Link  716 at Thu Mar 19 16:58:33 2026, MaxMem=   536870912 cpu:         0.0
 (Enter C:\G09W\l103.exe)

 GradGradGradGradGradGradGradGradGradGradGradGradGradGradGradGradGradGrad
 Berny optimization.
 Using GEDIIS/GDIIS optimizer.
 FormGI is forming the generalized inverse of G from B-inverse, IUseBI=4.
 Internal  Forces:  Max     0.002855489 RMS     0.000612115
 Search for a local minimum.
 Step number   2 out of a maximum of   38
 All quantities printed in internal units (Hartrees-Bohrs-Radians)
 RMS Force = .61211D-03 SwitMx=.10000D-02 MixMth= 2
 Mixed Optimization -- En-DIIS/RFO-DIIS
 Update second derivatives using D2CorX and points    1    2
 DE= -4.44D-04 DEPred=-5.66D-04 R= 7.85D-01
 TightC=F SS=  1.41D+00  RLast= 7.15D-02 DXNew= 5.0454D-01 2.1448D-01
 Trust test= 7.85D-01 RLast= 7.15D-02 DXMaxT set to 3.00D-01
 ITU=  1  0
 Use linear search instead of GDIIS.
     Eigenvalues ---    0.00606   0.05600   0.05600   0.05600   0.05600
     Eigenvalues ---    0.15999   0.16000   0.16000   0.16000   0.16000
     Eigenvalues ---    0.16912   0.34174   0.34343   0.34345   0.34345
     Eigenvalues ---    0.34345   0.34345   0.35296
 RFO step:  Lambda=-1.15635405D-06 EMin= 6.06437442D-03
 Quartic linear search produced a step of -0.16541.
 Iteration  1 RMS(Cart)=  0.00419935 RMS(Int)=  0.00001145
 Iteration  2 RMS(Cart)=  0.00000394 RMS(Int)=  0.00001093
 Iteration  3 RMS(Cart)=  0.00000000 RMS(Int)=  0.00001093
 ITry= 1 IFail=0 DXMaxC= 8.80D-03 DCOld= 1.00D+10 DXMaxT= 3.00D-01 DXLimC= 3.00D+00 Rises=F
 Variable       Old X    -DE/DX   Delta X   Delta X   Delta X     New X
                                 (Linear)    (Quad)   (Total)
    R1        2.90081  -0.00286  -0.00718  -0.00072  -0.00790   2.89291
    R2        2.07135   0.00004  -0.00063   0.00070   0.00007   2.07141
    R3        2.07141   0.00000  -0.00064   0.00062  -0.00002   2.07139
    R4        2.07135   0.00003  -0.00063   0.00068   0.00005   2.07140
    R5        2.07141   0.00000  -0.00064   0.00062  -0.00002   2.07139
    R6        2.07135   0.00003  -0.00063   0.00068   0.00005   2.07140
    R7        2.07135   0.00004  -0.00063   0.00070   0.00007   2.07141
    A1        1.94545  -0.00041  -0.00259   0.00028  -0.00229   1.94315
    A2        1.94560  -0.00045  -0.00262   0.00003  -0.00257   1.94302
    A3        1.94545  -0.00042  -0.00259   0.00021  -0.00237   1.94308
    A4        1.87450   0.00046   0.00275  -0.00017   0.00260   1.87709
    A5        1.87457   0.00044   0.00274  -0.00020   0.00255   1.87712
    A6        1.87448   0.00046   0.00275  -0.00018   0.00258   1.87706
    A7        1.94560  -0.00045  -0.00262   0.00003  -0.00257   1.94302
    A8        1.94545  -0.00042  -0.00259   0.00021  -0.00237   1.94308
    A9        1.94545  -0.00041  -0.00259   0.00028  -0.00229   1.94315
   A10        1.87448   0.00046   0.00275  -0.00018   0.00258   1.87706
   A11        1.87450   0.00046   0.00275  -0.00017   0.00260   1.87709
   A12        1.87457   0.00044   0.00274  -0.00020   0.00255   1.87712
    D1       -1.04719   0.00000   0.00000   0.00000   0.00000  -1.04719
    D2        1.04720  -0.00001   0.00000  -0.00008  -0.00008   1.04712
    D3       -3.14159   0.00000   0.00000   0.00000   0.00000  -3.14159
    D4       -3.14159   0.00000   0.00000   0.00000   0.00000  -3.14159
    D5       -1.04720   0.00000   0.00000  -0.00007  -0.00007  -1.04728
    D6        1.04719   0.00000   0.00000   0.00000   0.00000   1.04719
    D7        1.04720   0.00000   0.00000   0.00007   0.00007   1.04728
    D8        3.14159   0.00000   0.00000   0.00000   0.00000   3.14159
    D9       -1.04720   0.00001   0.00000   0.00008   0.00008  -1.04712
         Item               Value     Threshold  Converged?
 Maximum Force            0.002855     0.000450     NO 
 RMS     Force            0.000612     0.000300     NO 
 Maximum Displacement     0.008798     0.001800     NO 
 RMS     Displacement     0.004202     0.001200     NO 
 Predicted change in Energy=-1.693957D-05
 Lowest energy point so far.  Saving SCF results.
 GradGradGradGradGradGradGradGradGradGradGradGradGradGradGradGradGradGrad

 Leave Link  103 at Thu Mar 19 16:58:34 2026, MaxMem=   536870912 cpu:         0.0
 (Enter C:\G09W\l202.exe)
                          Input orientation:                          
 ---------------------------------------------------------------------
 Center     Atomic      Atomic             Coordinates (Angstroms)
 Number     Number       Type             X           Y           Z
 ---------------------------------------------------------------------
      1          6           0        0.759445   -0.084964    0.043701
      2          6           0       -0.759445    0.084964   -0.043702
      3          1           0        1.073892   -1.063245   -0.337906
      4          1           0        1.110537   -0.005644    1.079050
      5          1           0        1.280714    0.681290   -0.541658
      6          1           0       -1.110538    0.005644   -1.079050
      7          1           0       -1.280714   -0.681290    0.541658
      8          1           0       -1.073892    1.063245    0.337906
 ---------------------------------------------------------------------
                    Distance matrix (angstroms):
                    1          2          3          4          5
     1  C    0.000000
     2  C    1.530863   0.000000
     3  H    1.096145   2.183132   0.000000
     4  H    1.096131   2.183029   1.768510   0.000000
     5  H    1.096136   2.183075   1.768528   1.768483   0.000000
     6  H    2.183029   1.096131   2.542351   3.096885   2.542316
     7  H    2.183074   1.096136   2.542379   2.542316   3.096953
     8  H    2.183132   1.096145   3.097040   2.542351   2.542380
                    6          7          8
     6  H    0.000000
     7  H    1.768483   0.000000
     8  H    1.768510   1.768528   0.000000
 Stoichiometry    C2H6
 Framework group  C1[X(C2H6)]
 Deg. of freedom    18
 Full point group                 C1      NOp   1
 RotChk:  IX=2 Diff= 2.07D-01
 Largest Abelian subgroup         C1      NOp   1
 Largest concise Abelian subgroup C1      NOp   1
                         Standard orientation:                         
 ---------------------------------------------------------------------
 Center     Atomic      Atomic             Coordinates (Angstroms)
 Number     Number       Type             X           Y           Z
 ---------------------------------------------------------------------
      1          6           0        0.765431    0.000001    0.000001
      2          6           0       -0.765431   -0.000001   -0.000001
      3          1           0        1.164221    0.998246    0.214494
      4          1           0        1.164087   -0.313381   -0.971786
      5          1           0        1.164148   -0.684947    0.757224
      6          1           0       -1.164087    0.313382    0.971785
      7          1           0       -1.164147    0.684947   -0.757224
      8          1           0       -1.164221   -0.998246   -0.214494
 ---------------------------------------------------------------------
 Rotational constants (GHZ):     80.1656729     19.8902582     19.8901117
 Leave Link  202 at Thu Mar 19 16:58:34 2026, MaxMem=   536870912 cpu:         0.0
 (Enter C:\G09W\l301.exe)
 Standard basis: 6-31G(d) (6D, 7F)
 Ernie: Thresh=  0.10000D-02 Tol=  0.10000D-05 Strict=F.
 There are    42 symmetry adapted cartesian basis functions of A   symmetry.
 There are    42 symmetry adapted basis functions of A   symmetry.
    42 basis functions,    80 primitive gaussians,    42 cartesian basis functions
     9 alpha electrons        9 beta electrons
       nuclear repulsion energy        42.1069651697 Hartrees.
 IExCor=  402 DFT=T Ex+Corr=B3LYP ExCW=0 ScaHFX=  0.200000
 ScaDFX=  0.800000  0.720000  1.000000  0.810000 ScalE2=  1.000000  1.000000
 IRadAn=      0 IRanWt=     -1 IRanGd=            0 ICorTp=0 IEmpDi=  4
 NAtoms=    8 NActive=    8 NUniq=    8 SFac= 1.00D+00 NAtFMM=   60 NAOKFM=F Big=F
 Integral buffers will be    131072 words long.
 Raffenetti 2 integral format.
 Two-electron integral symmetry is turned on.
 Leave Link  301 at Thu Mar 19 16:58:34 2026, MaxMem=   536870912 cpu:         0.0
 (Enter C:\G09W\l302.exe)
 NPDir=0 NMtPBC=     1 NCelOv=     1 NCel=       1 NClECP=     1 NCelD=      1
         NCelK=      1 NCelE2=     1 NClLst=     1 CellRange=     0.0.
 One-electron integrals computed using PRISM.
 NBasis=    42 RedAO= T EigKep=  8.49D-03  NBF=    42
 NBsUse=    42 1.00D-06 EigRej= -1.00D+00 NBFU=    42
 Precomputing XC quadrature grid using
 IXCGrd= 4 IRadAn=           0 IRanWt=          -1 IRanGd=           0 AccXCQ= 0.00D+00.
 Generated NRdTot=       0 NPtTot=           0 NUsed=           0 NTot=          32
 NSgBfM=    42    42    42    42    42 MxSgAt=     8 MxSgA2=     8.
 Leave Link  302 at Thu Mar 19 16:58:35 2026, MaxMem=   536870912 cpu:         0.0
 (Enter C:\G09W\l303.exe)
 DipDrv:  MaxL=1.
 Leave Link  303 at Thu Mar 19 16:58:35 2026, MaxMem=   536870912 cpu:         0.0
 (Enter C:\G09W\l401.exe)
 Initial guess from the checkpoint file:  "ethane_rdkit.chk"
 B after Tr=     0.000000    0.000000    0.000000
         Rot=    0.997327    0.073068   -0.000030    0.000015 Ang=   8.38 deg.
 Guess basis will be translated and rotated to current coordinates.
 JPrj=2 DoOrth=T DoCkMO=T.
 Leave Link  401 at Thu Mar 19 16:58:35 2026, MaxMem=   536870912 cpu:         0.0
 (Enter C:\G09W\l502.exe)
 Closed shell SCF:
 Using DIIS extrapolation, IDIIS=  1040.
 Integral symmetry usage will be decided dynamically.
 Keep R1 ints in memory in canonical form, NReq=1293450.
 IVT=       24424 IEndB=       24424 NGot=   536870912 MDV=   536438333
 LenX=   536438333 LenY=   536436128
 Requested convergence on RMS density matrix=1.00D-08 within 128 cycles.
 Requested convergence on MAX density matrix=1.00D-06.
 Requested convergence on             energy=1.00D-06.
 No special actions if energy rises.
 FoFCou: FMM=F IPFlag=           0 FMFlag=           0 FMFlg1=           0
         NFxFlg=           0 DoJE=F BraDBF=F KetDBF=F FulRan=T
         wScrn=  0.000000 ICntrl=     600 IOpCl=  0 I1Cent=           0 NGrid=           0
         NMat0=    1 NMatS0=    903 NMatT0=    0 NMatD0=    1 NMtDS0=    0 NMtDT0=    0
 Symmetry not used in FoFCou.

 Cycle   1  Pass 1  IDiag  1:
 E= -79.8304193250942    
 DIIS: error= 4.00D-04 at cycle   1 NSaved=   1.
 NSaved= 1 IEnMin= 1 EnMin= -79.8304193250942     IErMin= 1 ErrMin= 4.00D-04
 ErrMax= 4.00D-04  0.00D+00 EMaxC= 1.00D-01 BMatC= 3.17D-06 BMatP= 3.17D-06
 IDIUse=3 WtCom= 9.96D-01 WtEn= 4.00D-03
 Coeff-Com:  0.100D+01
 Coeff-En:   0.100D+01
 Coeff:      0.100D+01
 Gap=     2.109 Goal=   None    Shift=    0.000
 RMSDP=5.37D-05 MaxDP=3.27D-04              OVMax= 8.59D-04

 Cycle   2  Pass 1  IDiag  1:
 E= -79.8304229166525     Delta-E=       -0.000003591558 Rises=F Damp=F
 DIIS: error= 1.09D-04 at cycle   2 NSaved=   2.
 NSaved= 2 IEnMin= 2 EnMin= -79.8304229166525     IErMin= 2 ErrMin= 1.09D-04
 ErrMax= 1.09D-04  0.00D+00 EMaxC= 1.00D-01 BMatC= 3.86D-07 BMatP= 3.17D-06
 IDIUse=3 WtCom= 9.99D-01 WtEn= 1.09D-03
 Coeff-Com:  0.198D+00 0.802D+00
 Coeff-En:   0.000D+00 0.100D+01
 Coeff:      0.197D+00 0.803D+00
 Gap=     0.445 Goal=   None    Shift=    0.000
 RMSDP=1.80D-05 MaxDP=1.51D-04 DE=-3.59D-06 OVMax= 2.19D-04

 Cycle   3  Pass 1  IDiag  1:
 E= -79.8304231421958     Delta-E=       -0.000000225543 Rises=F Damp=F
 DIIS: error= 6.22D-05 at cycle   3 NSaved=   3.
 NSaved= 3 IEnMin= 3 EnMin= -79.8304231421958     IErMin= 3 ErrMin= 6.22D-05
 ErrMax= 6.22D-05  0.00D+00 EMaxC= 1.00D-01 BMatC= 1.36D-07 BMatP= 3.86D-07
 IDIUse=1 WtCom= 1.00D+00 WtEn= 0.00D+00
 Coeff-Com:  0.207D-01 0.372D+00 0.607D+00
 Coeff:      0.207D-01 0.372D+00 0.607D+00
 Gap=     0.445 Goal=   None    Shift=    0.000
 RMSDP=8.76D-06 MaxDP=8.17D-05 DE=-2.26D-07 OVMax= 1.09D-04

 Cycle   4  Pass 1  IDiag  1:
 E= -79.8304232761293     Delta-E=       -0.000000133934 Rises=F Damp=F
 DIIS: error= 1.36D-05 at cycle   4 NSaved=   4.
 NSaved= 4 IEnMin= 4 EnMin= -79.8304232761293     IErMin= 4 ErrMin= 1.36D-05
 ErrMax= 1.36D-05  0.00D+00 EMaxC= 1.00D-01 BMatC= 5.31D-09 BMatP= 1.36D-07
 IDIUse=1 WtCom= 1.00D+00 WtEn= 0.00D+00
 Coeff-Com: -0.745D-02 0.672D-01 0.223D+00 0.717D+00
 Coeff:     -0.745D-02 0.672D-01 0.223D+00 0.717D+00
 Gap=     0.445 Goal=   None    Shift=    0.000
 RMSDP=1.62D-06 MaxDP=1.36D-05 DE=-1.34D-07 OVMax= 1.85D-05

 Cycle   5  Pass 1  IDiag  1:
 E= -79.8304232816084     Delta-E=       -0.000000005479 Rises=F Damp=F
 DIIS: error= 2.88D-07 at cycle   5 NSaved=   5.
 NSaved= 5 IEnMin= 5 EnMin= -79.8304232816084     IErMin= 5 ErrMin= 2.88D-07
 ErrMax= 2.88D-07  0.00D+00 EMaxC= 1.00D-01 BMatC= 1.68D-12 BMatP= 5.31D-09
 IDIUse=1 WtCom= 1.00D+00 WtEn= 0.00D+00
 Coeff-Com: -0.204D-04-0.218D-02 0.888D-04 0.723D-02 0.995D+00
 Coeff:     -0.204D-04-0.218D-02 0.888D-04 0.723D-02 0.995D+00
 Gap=     0.445 Goal=   None    Shift=    0.000
 RMSDP=2.97D-08 MaxDP=2.89D-07 DE=-5.48D-09 OVMax= 4.15D-07

 Cycle   6  Pass 1  IDiag  1:
 E= -79.8304232816099     Delta-E=       -0.000000000002 Rises=F Damp=F
 DIIS: error= 4.69D-09 at cycle   6 NSaved=   6.
 NSaved= 6 IEnMin= 6 EnMin= -79.8304232816099     IErMin= 6 ErrMin= 4.69D-09
 ErrMax= 4.69D-09  0.00D+00 EMaxC= 1.00D-01 BMatC= 6.02D-16 BMatP= 1.68D-12
 IDIUse=1 WtCom= 1.00D+00 WtEn= 0.00D+00
 Coeff-Com:  0.108D-04-0.711D-04-0.394D-03-0.135D-02-0.160D-01 0.102D+01
 Coeff:      0.108D-04-0.711D-04-0.394D-03-0.135D-02-0.160D-01 0.102D+01
 Gap=     0.445 Goal=   None    Shift=    0.000
 RMSDP=1.36D-09 MaxDP=8.13D-09 DE=-1.53D-12 OVMax= 1.51D-08

 SCF Done:  E(RB3LYP) =  -79.8304232816     A.U. after    6 cycles
            NFock=  6  Conv=0.14D-08     -V/T= 2.0108
 KE= 7.897476817583D+01 PE=-2.680198465993D+02 EE= 6.710768997219D+01
 Leave Link  502 at Thu Mar 19 16:58:36 2026, MaxMem=   536870912 cpu:         1.0
 (Enter C:\G09W\l701.exe)
 Compute integral first derivatives.
 ... and contract with generalized density number  0.
 Leave Link  701 at Thu Mar 19 16:58:36 2026, MaxMem=   536870912 cpu:         0.0
 (Enter C:\G09W\l702.exe)
 L702 exits ... SP integral derivatives will be done elsewhere.
 Leave Link  702 at Thu Mar 19 16:58:37 2026, MaxMem=   536870912 cpu:         0.0
 (Enter C:\G09W\l703.exe)
 Compute integral first derivatives, UseDBF=F ICtDFT=           0.
 Integral derivatives from FoFJK, PRISM(SPDF).
 Calling FoFJK, ICntrl=      2127 FMM=F ISym2X=0 I1Cent= 0 IOpClX= 0 NMat=1 NMatS=1 NMatT=0.
 FoFJK:  IHMeth= 1 ICntrl=    2127 DoSepK=F KAlg= 0 I1Cent=   0 FoldK=F
 IRaf=         0 NMat=   1 IRICut=       1 DoRegI=T DoRafI=F ISym2E= 0.
 FoFCou: FMM=F IPFlag=           0 FMFlag=      100000 FMFlg1=         800
         NFxFlg=           0 DoJE=F BraDBF=F KetDBF=F FulRan=T
         wScrn=  0.000000 ICntrl=    2127 IOpCl=  0 I1Cent=           0 NGrid=           0
         NMat0=    1 NMatS0=      1 NMatT0=    0 NMatD0=    1 NMtDS0=    0 NMtDT0=    0
 Symmetry not used in FoFCou.
 Leave Link  703 at Thu Mar 19 16:58:37 2026, MaxMem=   536870912 cpu:         0.0
 (Enter C:\G09W\l716.exe)
 Dipole        =-1.06659614D-09 2.72574057D-08-1.06750327D-08
 ***** Axes restored to original set *****
 -------------------------------------------------------------------
 Center     Atomic                   Forces (Hartrees/Bohr)
 Number     Number              X              Y              Z
 -------------------------------------------------------------------
      1        6          -0.000240902    0.000035725    0.000004354
      2        6           0.000240906   -0.000035771   -0.000004390
      3        1           0.000026279    0.000009910   -0.000002353
      4        1           0.000053365   -0.000017408    0.000000862
      5        1           0.000043755   -0.000010435    0.000002101
      6        1          -0.000053346    0.000017424   -0.000000857
      7        1          -0.000043766    0.000010455   -0.000002084
      8        1          -0.000026292   -0.000009900    0.000002367
 -------------------------------------------------------------------
 Cartesian Forces:  Max     0.000240906 RMS     0.000073771
 Leave Link  716 at Thu Mar 19 16:58:37 2026, MaxMem=   536870912 cpu:         0.0
 (Enter C:\G09W\l103.exe)

 GradGradGradGradGradGradGradGradGradGradGradGradGradGradGradGradGradGrad
 Berny optimization.
 Using GEDIIS/GDIIS optimizer.
 FormGI is forming the generalized inverse of G from B-inverse, IUseBI=4.
 Internal  Forces:  Max     0.000118275 RMS     0.000036101
 Search for a local minimum.
 Step number   3 out of a maximum of   38
 All quantities printed in internal units (Hartrees-Bohrs-Radians)
 RMS Force = .36101D-04 SwitMx=.10000D-02 MixMth= 2
 Mixed Optimization -- En-DIIS/RFO-DIIS
 Swapping is turned off.
 Update second derivatives using D2CorX and points    1    2    3
 DE= -2.07D-05 DEPred=-1.69D-05 R= 1.22D+00
 TightC=F SS=  1.41D+00  RLast= 1.17D-02 DXNew= 5.0454D-01 3.5143D-02
 Trust test= 1.22D+00 RLast= 1.17D-02 DXMaxT set to 3.00D-01
 ITU=  1  1  0
     Eigenvalues ---    0.00606   0.05624   0.05625   0.05625   0.05626
     Eigenvalues ---    0.15989   0.16000   0.16000   0.16000   0.16000
     Eigenvalues ---    0.17389   0.32802   0.34168   0.34345   0.34345
     Eigenvalues ---    0.34345   0.34345   0.34382
 En-DIIS/RFO-DIIS IScMMF=        0 using points:     3    2
 RFO step:  Lambda=-8.09648074D-08.
 NNeg= 0 NP= 2 Switch=  2.50D-03 Rises=F DC=  2.07D-05 SmlDif=  1.00D-05
 RMS Error=  0.8109964216D-04 NUsed= 2 EDIIS=F
 DidBck=F Rises=F RFO-DIIS coefs:    0.99164    0.00836
 Iteration  1 RMS(Cart)=  0.00016317 RMS(Int)=  0.00000004
 Iteration  2 RMS(Cart)=  0.00000004 RMS(Int)=  0.00000002
 ITry= 1 IFail=0 DXMaxC= 3.87D-04 DCOld= 1.00D+10 DXMaxT= 3.00D-01 DXLimC= 3.00D+00 Rises=F
 Variable       Old X    -DE/DX   Delta X   Delta X   Delta X     New X
                                 (Linear)    (Quad)   (Total)
    R1        2.89291  -0.00012   0.00007  -0.00048  -0.00041   2.89250
    R2        2.07141   0.00000   0.00000  -0.00001  -0.00001   2.07141
    R3        2.07139   0.00002   0.00000   0.00005   0.00005   2.07144
    R4        2.07140   0.00001   0.00000   0.00004   0.00004   2.07144
    R5        2.07139   0.00002   0.00000   0.00005   0.00005   2.07144
    R6        2.07140   0.00001   0.00000   0.00004   0.00004   2.07144
    R7        2.07141   0.00000   0.00000  -0.00001  -0.00001   2.07141
    A1        1.94315   0.00002   0.00002   0.00008   0.00010   1.94325
    A2        1.94302   0.00006   0.00002   0.00034   0.00036   1.94339
    A3        1.94308   0.00004   0.00002   0.00023   0.00025   1.94333
    A4        1.87709  -0.00004  -0.00002  -0.00023  -0.00025   1.87684
    A5        1.87712  -0.00004  -0.00002  -0.00026  -0.00028   1.87683
    A6        1.87706  -0.00005  -0.00002  -0.00020  -0.00022   1.87685
    A7        1.94302   0.00006   0.00002   0.00034   0.00036   1.94339
    A8        1.94308   0.00004   0.00002   0.00023   0.00025   1.94333
    A9        1.94315   0.00002   0.00002   0.00008   0.00010   1.94325
   A10        1.87706  -0.00005  -0.00002  -0.00020  -0.00022   1.87685
   A11        1.87709  -0.00004  -0.00002  -0.00023  -0.00025   1.87684
   A12        1.87712  -0.00004  -0.00002  -0.00026  -0.00028   1.87683
    D1       -1.04719   0.00000   0.00000  -0.00001  -0.00001  -1.04720
    D2        1.04712   0.00001   0.00000   0.00013   0.00013   1.04725
    D3       -3.14159   0.00000   0.00000   0.00000   0.00000  -3.14159
    D4       -3.14159   0.00000   0.00000   0.00000   0.00000  -3.14159
    D5       -1.04728   0.00001   0.00000   0.00013   0.00013  -1.04714
    D6        1.04719   0.00000   0.00000   0.00001   0.00001   1.04720
    D7        1.04728  -0.00001   0.00000  -0.00013  -0.00013   1.04714
    D8        3.14159   0.00000   0.00000   0.00000   0.00000  -3.14159
    D9       -1.04712  -0.00001   0.00000  -0.00013  -0.00013  -1.04725
         Item               Value     Threshold  Converged?
 Maximum Force            0.000118     0.000450     YES
 RMS     Force            0.000036     0.000300     YES
 Maximum Displacement     0.000387     0.001800     YES
 RMS     Displacement     0.000163     0.001200     YES
 Predicted change in Energy=-9.208214D-08
 Optimization completed.
    -- Stationary point found.
                           ----------------------------
                           !   Optimized Parameters   !
                           ! (Angstroms and Degrees)  !
 --------------------------                            --------------------------
 ! Name  Definition              Value          Derivative Info.                !
 --------------------------------------------------------------------------------
 ! R1    R(1,2)                  1.5309         -DE/DX =   -0.0001              !
 ! R2    R(1,3)                  1.0961         -DE/DX =    0.0                 !
 ! R3    R(1,4)                  1.0961         -DE/DX =    0.0                 !
 ! R4    R(1,5)                  1.0961         -DE/DX =    0.0                 !
 ! R5    R(2,6)                  1.0961         -DE/DX =    0.0                 !
 ! R6    R(2,7)                  1.0961         -DE/DX =    0.0                 !
 ! R7    R(2,8)                  1.0961         -DE/DX =    0.0                 !
 ! A1    A(2,1,3)              111.3345         -DE/DX =    0.0                 !
 ! A2    A(2,1,4)              111.3271         -DE/DX =    0.0001              !
 ! A3    A(2,1,5)              111.3305         -DE/DX =    0.0                 !
 ! A4    A(3,1,4)              107.5495         -DE/DX =    0.0                 !
 ! A5    A(3,1,5)              107.5508         -DE/DX =    0.0                 !
 ! A6    A(4,1,5)              107.5479         -DE/DX =    0.0                 !
 ! A7    A(1,2,6)              111.3271         -DE/DX =    0.0001              !
 ! A8    A(1,2,7)              111.3305         -DE/DX =    0.0                 !
 ! A9    A(1,2,8)              111.3345         -DE/DX =    0.0                 !
 ! A10   A(6,2,7)              107.5479         -DE/DX =    0.0                 !
 ! A11   A(6,2,8)              107.5495         -DE/DX =    0.0                 !
 ! A12   A(7,2,8)              107.5509         -DE/DX =    0.0                 !
 ! D1    D(3,1,2,6)            -59.9997         -DE/DX =    0.0                 !
 ! D2    D(3,1,2,7)             59.9957         -DE/DX =    0.0                 !
 ! D3    D(3,1,2,8)           -180.0            -DE/DX =    0.0                 !
 ! D4    D(4,1,2,6)           -180.0            -DE/DX =    0.0                 !
 ! D5    D(4,1,2,7)            -60.0045         -DE/DX =    0.0                 !
 ! D6    D(4,1,2,8)             59.9997         -DE/DX =    0.0                 !
 ! D7    D(5,1,2,6)             60.0045         -DE/DX =    0.0                 !
 ! D8    D(5,1,2,7)           -180.0            -DE/DX =    0.0                 !
 ! D9    D(5,1,2,8)            -59.9957         -DE/DX =    0.0                 !
 --------------------------------------------------------------------------------
 Lowest energy point so far.  Saving SCF results.
 GradGradGradGradGradGradGradGradGradGradGradGradGradGradGradGradGradGrad

 Largest change from initial coordinates is atom    4       1.412 Angstoms.
 Leave Link  103 at Thu Mar 19 16:58:38 2026, MaxMem=   536870912 cpu:         0.0
 (Enter C:\G09W\l202.exe)
                          Input orientation:                          
 ---------------------------------------------------------------------
 Center     Atomic      Atomic             Coordinates (Angstroms)
 Number     Number       Type             X           Y           Z
 ---------------------------------------------------------------------
      1          6           0        0.759445   -0.084964    0.043701
      2          6           0       -0.759445    0.084964   -0.043702
      3          1           0        1.073892   -1.063245   -0.337906
      4          1           0        1.110537   -0.005644    1.079050
      5          1           0        1.280714    0.681290   -0.541658
      6          1           0       -1.110538    0.005644   -1.079050
      7          1           0       -1.280714   -0.681290    0.541658
      8          1           0       -1.073892    1.063245    0.337906
 ---------------------------------------------------------------------
                    Distance matrix (angstroms):
                    1          2          3          4          5
     1  C    0.000000
     2  C    1.530863   0.000000
     3  H    1.096145   2.183132   0.000000
     4  H    1.096131   2.183029   1.768510   0.000000
     5  H    1.096136   2.183075   1.768528   1.768483   0.000000
     6  H    2.183029   1.096131   2.542351   3.096885   2.542316
     7  H    2.183074   1.096136   2.542379   2.542316   3.096953
     8  H    2.183132   1.096145   3.097040   2.542351   2.542380
                    6          7          8
     6  H    0.000000
     7  H    1.768483   0.000000
     8  H    1.768510   1.768528   0.000000
 Stoichiometry    C2H6
 Framework group  C1[X(C2H6)]
 Deg. of freedom    18
 Full point group                 C1      NOp   1
 RotChk:  IX=2 Diff= 2.13D-11
 Largest Abelian subgroup         C1      NOp   1
 Largest concise Abelian subgroup C1      NOp   1
                         Standard orientation:                         
 ---------------------------------------------------------------------
 Center     Atomic      Atomic             Coordinates (Angstroms)
 Number     Number       Type             X           Y           Z
 ---------------------------------------------------------------------
      1          6           0        0.765431    0.000001    0.000001
      2          6           0       -0.765431   -0.000001   -0.000001
      3          1           0        1.164221    0.998246    0.214494
      4          1           0        1.164087   -0.313381   -0.971786
      5          1           0        1.164148   -0.684947    0.757224
      6          1           0       -1.164087    0.313382    0.971785
      7          1           0       -1.164147    0.684947   -0.757224
      8          1           0       -1.164221   -0.998246   -0.214494
 ---------------------------------------------------------------------
 Rotational constants (GHZ):     80.1656729     19.8902582     19.8901117
 Leave Link  202 at Thu Mar 19 16:58:38 2026, MaxMem=   536870912 cpu:         0.0
 (Enter C:\G09W\l601.exe)
 Copying SCF densities to generalized density rwf, IOpCl= 0 IROHF=0.

 **********************************************************************

            Population analysis using the SCF density.

 **********************************************************************

 Orbital symmetries:
       Occupied  (A) (A) (A) (A) (A) (A) (A) (A) (A)
       Virtual   (A) (A) (A) (A) (A) (A) (A) (A) (A) (A) (A) (A)
                 (A) (A) (A) (A) (A) (A) (A) (A) (A) (A) (A) (A)
                 (A) (A) (A) (A) (A) (A) (A) (A) (A)
 The electronic state is 1-A.
 Alpha  occ. eigenvalues --  -10.17237 -10.17216  -0.74737  -0.61194  -0.43010
 Alpha  occ. eigenvalues --   -0.43010  -0.36269  -0.34012  -0.34011
 Alpha virt. eigenvalues --    0.10475   0.15607   0.16373   0.16374   0.19019
 Alpha virt. eigenvalues --    0.19020   0.24238   0.51319   0.54377   0.54378
 Alpha virt. eigenvalues --    0.63669   0.63673   0.66834   0.88306   0.88306
 Alpha virt. eigenvalues --    0.90641   0.91970   0.91970   0.97932   1.06598
 Alpha virt. eigenvalues --    1.43934   1.52614   1.52618   1.93217   1.98113
 Alpha virt. eigenvalues --    1.98122   2.27064   2.27071   2.33270   2.33276
 Alpha virt. eigenvalues --    2.58711   4.14487   4.36592
          Condensed to atoms (all electrons):
               1          2          3          4          5          6
     1  C    5.012145   0.376079   0.382773   0.382770   0.382770  -0.034570
     2  C    0.376079   5.012145  -0.034558  -0.034570  -0.034566   0.382770
     3  H    0.382773  -0.034558   0.574805  -0.032346  -0.032345  -0.003625
     4  H    0.382770  -0.034570  -0.032346   0.574823  -0.032349   0.004641
     5  H    0.382770  -0.034566  -0.032345  -0.032349   0.574822  -0.003626
     6  H   -0.034570   0.382770  -0.003625   0.004641  -0.003626   0.574823
     7  H   -0.034566   0.382770  -0.003625  -0.003626   0.004640  -0.032349
     8  H   -0.034558   0.382773   0.004639  -0.003625  -0.003625  -0.032346
               7          8
     1  C   -0.034566  -0.034558
     2  C    0.382770   0.382773
     3  H   -0.003625   0.004639
     4  H   -0.003626  -0.003625
     5  H    0.004640  -0.003625
     6  H   -0.032349  -0.032346
     7  H    0.574822  -0.032345
     8  H   -0.032345   0.574805
 Mulliken charges:
               1
     1  C   -0.432843
     2  C   -0.432843
     3  H    0.144283
     4  H    0.144282
     5  H    0.144278
     6  H    0.144282
     7  H    0.144278
     8  H    0.144283
 Sum of Mulliken charges =   0.00000
 Mulliken charges with hydrogens summed into heavy atoms:
               1
     1  C    0.000000
     2  C    0.000000
 Electronic spatial extent (au):  <R**2>=            109.6863
 Charge=              0.0000 electrons
 Dipole moment (field-independent basis, Debye):
    X=              0.0000    Y=              0.0000    Z=              0.0000  Tot=              0.0000
 Quadrupole moment (field-independent basis, Debye-Ang):
   XX=            -15.2338   YY=            -14.7129   ZZ=            -14.7132
   XY=              0.0002   XZ=              0.0001   YZ=              0.0000
 Traceless Quadrupole moment (field-independent basis, Debye-Ang):
   XX=             -0.3472   YY=              0.1737   ZZ=              0.1735
   XY=              0.0002   XZ=              0.0001   YZ=              0.0000
 Octapole moment (field-independent basis, Debye-Ang**2):
  XXX=              0.0000  YYY=              0.0000  ZZZ=              0.0000  XYY=              0.0000
  XXY=              0.0000  XXZ=              0.0000  XZZ=              0.0000  YZZ=              0.0000
  YYZ=              0.0000  XYZ=              0.0000
 Hexadecapole moment (field-independent basis, Debye-Ang**3):
 XXXX=            -92.7392 YYYY=            -28.6610 ZZZZ=            -28.6606 XXXY=              0.0007
 XXXZ=              0.0005 YYYX=              0.9653 YYYZ=             -0.0001 ZZZX=             -0.7111
 ZZZY=              0.0001 XXYY=            -19.1601 XXZZ=            -19.1609 YYZZ=             -9.5536
 XXYZ=              0.0000 YYXZ=              0.7112 ZZXY=             -0.9651
 N-N= 4.210696516970D+01 E-N=-2.680198466322D+02  KE= 7.897476817583D+01
 No NMR shielding tensors so no spin-rotation constants.
 Leave Link  601 at Thu Mar 19 16:58:38 2026, MaxMem=   536870912 cpu:         0.0
 (Enter C:\G09W\l9999.exe)
 1|1|UNPC-DESKTOP-GS7R1K3|FOpt|RB3LYP|6-31G(d)|C2H6|1172|19-Mar-2026|0|
 |#p opt B3LYP/6-31G(d)||ethane [rdkit]||0,1|C,0.759444795,-0.084964057
 8,0.0437014611|C,-0.7594447975,0.0849641593,-0.0437017015|H,1.07389200
 07,-1.063244885,-0.337906215|H,1.1105373634,-0.0056438439,1.0790495969
 |H,1.2807143014,0.681290029,-0.5416584594|H,-1.1105375495,0.0056436763
 ,-1.0790497793|H,-1.2807140907,-0.6812900621,0.541658237|H,-1.07389202
 29,1.0632449843,0.3379058602||Version=EM64W-G09RevD.01|State=1-A|HF=-7
 9.8304233|RMSD=1.363e-009|RMSF=7.377e-005|Dipole=0.,0.,0.|Quadrupole=-
 0.2521052,0.1244024,0.1277028,0.0425412,-0.0220188,0.002501|PG=C01 [X(
 C2H6)]||@


 YOU CAN LEAD A BOY TO COLLEGE....
 BUT YOU CANNOT MAKE HIM THINK....
           ELBERT HUBBARD
 Job cpu time:       0 days  0 hours  0 minutes 15.0 seconds.
 File lengths (MBytes):  RWF=      5 Int=      0 D2E=      0 Chk=      1 Scr=      1
 Normal termination of Gaussian 09 at Thu Mar 19 16:58:38 2026.
