8
 energy: -6.438384541878 gnorm: 0.000000534181 xtb: 6.7.1 (edcfbbe)
C           -1.11452388459246       -0.13261142146332       -0.01006556778901
C            1.11405072946362        0.13246778931263        0.00960619028787
H           -1.80373605309284        0.67191777992031        1.78835085153205
H           -1.44648611722214       -2.18776582531226       -0.15420359356720
H           -1.80209858020954        0.91493583770359       -1.67853471718973
H            1.80231424801294       -0.91572963757477        1.67965323819792
H            1.80398660157678       -0.67220016982427       -1.78902675917709
H            1.44649305606362        2.18898564723808        0.15422035770519
