 Entering Gaussian System, Link 0=C:\G09W\g09.exe
 Input=ethane_xtb.com
 Output=C:\workspace\delta_chem\benchmark_results\ethane\ethane_xtb.out
 Initial command:
 C:\G09W\l1.exe ".\Gau-12628.inp" "C:\workspace\delta_chem\benchmark_results\ethane\ethane_xtb.out" /scrdir=".\"
 Entering Link 1 = C:\G09W\l1.exe PID=      8932.
  
 Copyright (c) 1988,1990,1992,1993,1995,1998,2003,2009,2013,
            Gaussian, Inc.  All Rights Reserved.
  
 This is part of the Gaussian(R) 09 program.  It is based on
 the Gaussian(R) 03 system (copyright 2003, Gaussian, Inc.),
 the Gaussian(R) 98 system (copyright 1998, Gaussian, Inc.),
 the Gaussian(R) 94 system (copyright 1995, Gaussian, Inc.),
 the Gaussian 92(TM) system (copyright 1992, Gaussian, Inc.),
 the Gaussian 90(TM) system (copyright 1990, Gaussian, Inc.),
 the Gaussian 88(TM) system (copyright 1988, Gaussian, Inc.),
 the Gaussian 86(TM) system (copyright 1986, Carnegie Mellon
 University), and the Gaussian 82(TM) system (copyright 1983,
 Carnegie Mellon University). Gaussian is a federally registered
 trademark of Gaussian, Inc.
  
 This software contains proprietary and confidential information,
 including trade secrets, belonging to Gaussian, Inc.
  
 This software is provided under written license and may be
 used, copied, transmitted, or stored only in accord with that
 written license.
  
 The following legend is applicable only to US Government
 contracts under FAR:
  
                    RESTRICTED RIGHTS LEGEND
  
 Use, reproduction and disclosure by the US Government is
 subject to restrictions as set forth in subparagraphs (a)
 and (c) of the Commercial Computer Software - Restricted
 Rights clause in FAR 52.227-19.
  
 Gaussian, Inc.
 340 Quinnipiac St., Bldg. 40, Wallingford CT 06492
  
  
 ---------------------------------------------------------------
 Warning -- This program may not be used in any manner that
 competes with the business of Gaussian, Inc. or will provide
 assistance to any competitor of Gaussian, Inc.  The licensee
 of this program is prohibited from giving any competitor of
 Gaussian, Inc. access to this program.  By using this program,
 the user acknowledges that Gaussian, Inc. is engaged in the
 business of creating and licensing software in the field of
 computational chemistry and represents and warrants to the
 licensee that it is not a competitor of Gaussian, Inc. and that
 it will not use this program in any manner prohibited above.
 ---------------------------------------------------------------
  

 Cite this work as:
 Gaussian 09, Revision D.01,
 M. J. Frisch, G. W. Trucks, H. B. Schlegel, G. E. Scuseria, 
 M. A. Robb, J. R. Cheeseman, G. Scalmani, V. Barone, B. Mennucci, 
 G. A. Petersson, H. Nakatsuji, M. Caricato, X. Li, H. P. Hratchian, 
 A. F. Izmaylov, J. Bloino, G. Zheng, J. L. Sonnenberg, M. Hada, 
 M. Ehara, K. Toyota, R. Fukuda, J. Hasegawa, M. Ishida, T. Nakajima, 
 Y. Honda, O. Kitao, H. Nakai, T. Vreven, J. A. Montgomery, Jr., 
 J. E. Peralta, F. Ogliaro, M. Bearpark, J. J. Heyd, E. Brothers, 
 K. N. Kudin, V. N. Staroverov, T. Keith, R. Kobayashi, J. Normand, 
 K. Raghavachari, A. Rendell, J. C. Burant, S. S. Iyengar, J. Tomasi, 
 M. Cossi, N. Rega, J. M. Millam, M. Klene, J. E. Knox, J. B. Cross, 
 V. Bakken, C. Adamo, J. Jaramillo, R. Gomperts, R. E. Stratmann, 
 O. Yazyev, A. J. Austin, R. Cammi, C. Pomelli, J. W. Ochterski, 
 R. L. Martin, K. Morokuma, V. G. Zakrzewski, G. A. Voth, 
 P. Salvador, J. J. Dannenberg, S. Dapprich, A. D. Daniels, 
 O. Farkas, J. B. Foresman, J. V. Ortiz, J. Cioslowski, 
 and D. J. Fox, Gaussian, Inc., Wallingford CT, 2013.
 
 ******************************************
 Gaussian 09:  EM64W-G09RevD.01 13-Apr-2013
                19-Mar-2026 
 ******************************************
 %NProcShared=4
 Will use up to    4 processors via shared memory.
 %Mem=4GB
 %Chk=ethane_xtb.chk
 ---------------------
 #p opt B3LYP/6-31G(d)
 ---------------------
 1/14=-1,18=20,19=15,26=3,38=1/1,3;
 2/9=110,12=2,17=6,18=5,40=1/2;
 3/5=1,6=6,7=1,11=2,16=1,25=1,30=1,71=1,74=-5/1,2,3;
 4//1;
 5/5=2,38=5/2;
 6/7=2,8=2,9=2,10=2,28=1/1;
 7//1,2,3,16;
 1/14=-1,18=20,19=15,26=3/3(2);
 2/9=110/2;
 99//99;
 2/9=110/2;
 3/5=1,6=6,7=1,11=2,16=1,25=1,30=1,71=1,74=-5/1,2,3;
 4/5=5,16=3,69=1/1;
 5/5=2,38=5/2;
 7//1,2,3,16;
 1/14=-1,18=20,19=15,26=3/3(-5);
 2/9=110/2;
 6/7=2,8=2,9=2,10=2,19=2,28=1/1;
 99/9=1/99;
 Leave Link    1 at Thu Mar 19 16:58:40 2026, MaxMem=   536870912 cpu:         0.0
 (Enter C:\G09W\l101.exe)
 ------------
 ethane [xtb]
 ------------
 Symbolic Z-matrix:
 Charge =  0 Multiplicity = 1
 C                    -1.11452  -0.13261  -0.01007 
 C                     1.11405   0.13247   0.00961 
 H                    -1.80374   0.67192   1.78835 
 H                    -1.44649  -2.18777  -0.1542 
 H                    -1.8021    0.91494  -1.67853 
 H                     1.80231  -0.91573   1.67965 
 H                     1.80399  -0.6722   -1.78903 
 H                     1.44649   2.18899   0.15422 
 
 Add virtual bond connecting atoms H5         and C1         Dist= 3.94D+00.
 Add virtual bond connecting atoms H4         and C1         Dist= 3.94D+00.
 Add virtual bond connecting atoms H3         and C1         Dist= 3.94D+00.
 Add virtual bond connecting atoms H7         and C2         Dist= 3.95D+00.
 Add virtual bond connecting atoms H8         and C2         Dist= 3.95D+00.
 Add virtual bond connecting atoms H6         and C2         Dist= 3.95D+00.
 Add virtual bond connecting atoms C2         and C1         Dist= 4.24D+00.
 NAtoms=      8 NQM=        8 NQMF=       0 NMMI=      0 NMMIF=      0
                NMic=       0 NMicF=      0.
                    Isotopes and Nuclear Properties:
 (Nuclear quadrupole moments (NQMom) in fm**2, nuclear magnetic moments (NMagM)
  in nuclear magnetons)

  Atom         1           2           3           4           5           6           7           8
 IAtWgt=          12          12           1           1           1           1           1           1
 AtmWgt=  12.0000000  12.0000000   1.0078250   1.0078250   1.0078250   1.0078250   1.0078250   1.0078250
 NucSpn=           0           0           1           1           1           1           1           1
 AtZEff=   0.0000000   0.0000000   0.0000000   0.0000000   0.0000000   0.0000000   0.0000000   0.0000000
 NQMom=    0.0000000   0.0000000   0.0000000   0.0000000   0.0000000   0.0000000   0.0000000   0.0000000
 NMagM=    0.0000000   0.0000000   2.7928460   2.7928460   2.7928460   2.7928460   2.7928460   2.7928460
 AtZNuc=   6.0000000   6.0000000   1.0000000   1.0000000   1.0000000   1.0000000   1.0000000   1.0000000
 Leave Link  101 at Thu Mar 19 16:58:40 2026, MaxMem=   536870912 cpu:         0.0
 (Enter C:\G09W\l103.exe)

 GradGradGradGradGradGradGradGradGradGradGradGradGradGradGradGradGradGrad
 Berny optimization.
 Initialization pass.
                           ----------------------------
                           !    Initial Parameters    !
                           ! (Angstroms and Degrees)  !
 --------------------------                            --------------------------
 ! Name  Definition              Value          Derivative Info.                !
 --------------------------------------------------------------------------------
 ! R1    R(1,2)                  2.2444         estimate D2E/DX2                !
 ! R2    R(1,3)                  2.0872         estimate D2E/DX2                !
 ! R3    R(1,4)                  2.0868         estimate D2E/DX2                !
 ! R4    R(1,5)                  2.0866         estimate D2E/DX2                !
 ! R5    R(2,6)                  2.0884         estimate D2E/DX2                !
 ! R6    R(2,7)                  2.0877         estimate D2E/DX2                !
 ! R7    R(2,8)                  2.0882         estimate D2E/DX2                !
 ! A1    A(2,1,3)              105.9502         estimate D2E/DX2                !
 ! A2    A(2,1,4)              105.9551         estimate D2E/DX2                !
 ! A3    A(2,1,5)              105.9569         estimate D2E/DX2                !
 ! A4    A(3,1,4)              112.7428         estimate D2E/DX2                !
 ! A5    A(3,1,5)              112.7459         estimate D2E/DX2                !
 ! A6    A(4,1,5)              112.7541         estimate D2E/DX2                !
 ! A7    A(1,2,6)              105.9604         estimate D2E/DX2                !
 ! A8    A(1,2,7)              105.9664         estimate D2E/DX2                !
 ! A9    A(1,2,8)              105.962          estimate D2E/DX2                !
 ! A10   A(6,2,7)              112.7417         estimate D2E/DX2                !
 ! A11   A(6,2,8)              112.7334         estimate D2E/DX2                !
 ! A12   A(7,2,8)              112.7448         estimate D2E/DX2                !
 ! D1    D(3,1,2,6)             59.9946         estimate D2E/DX2                !
 ! D2    D(3,1,2,7)            179.9971         estimate D2E/DX2                !
 ! D3    D(3,1,2,8)            -59.9961         estimate D2E/DX2                !
 ! D4    D(4,1,2,6)            -59.9985         estimate D2E/DX2                !
 ! D5    D(4,1,2,7)             60.004          estimate D2E/DX2                !
 ! D6    D(4,1,2,8)           -179.9892         estimate D2E/DX2                !
 ! D7    D(5,1,2,6)            179.9921         estimate D2E/DX2                !
 ! D8    D(5,1,2,7)            -60.0054         estimate D2E/DX2                !
 ! D9    D(5,1,2,8)             60.0014         estimate D2E/DX2                !
 --------------------------------------------------------------------------------
 Trust Radius=3.00D-01 FncErr=1.00D-07 GrdErr=1.00D-06
 Number of steps in this run=     38 maximum allowed number of steps=    100.
 GradGradGradGradGradGradGradGradGradGradGradGradGradGradGradGradGradGrad

 Leave Link  103 at Thu Mar 19 16:58:41 2026, MaxMem=   536870912 cpu:         0.0
 (Enter C:\G09W\l202.exe)
                          Input orientation:                          
 ---------------------------------------------------------------------
 Center     Atomic      Atomic             Coordinates (Angstroms)
 Number     Number       Type             X           Y           Z
 ---------------------------------------------------------------------
      1          6           0       -1.114524   -0.132611   -0.010066
      2          6           0        1.114051    0.132468    0.009606
      3          1           0       -1.803736    0.671918    1.788351
      4          1           0       -1.446486   -2.187766   -0.154204
      5          1           0       -1.802099    0.914936   -1.678535
      6          1           0        1.802314   -0.915730    1.679653
      7          1           0        1.803987   -0.672200   -1.789027
      8          1           0        1.446493    2.188986    0.154220
 ---------------------------------------------------------------------
                    Distance matrix (angstroms):
                    1          2          3          4          5
     1  C    0.000000
     2  C    2.244370   0.000000
     3  H    2.087243   3.459540   0.000000
     4  H    2.086776   3.459287   3.475476   0.000000
     5  H    2.086601   3.459191   3.475393   3.475170   0.000000
     6  H    3.460689   2.088416   3.941578   3.941549   5.255526
     7  H    3.460284   2.087722   5.255468   3.941467   3.941454
     8  H    3.460580   2.088228   3.941556   5.255512   3.941515
                    6          7          8
     6  H    0.000000
     7  H    3.477219   0.000000
     8  H    3.477472   3.477125   0.000000
 Stoichiometry    C2H6
 Framework group  C1[X(C2H6)]
 Deg. of freedom    18
 Full point group                 C1      NOp   1
 Largest Abelian subgroup         C1      NOp   1
 Largest concise Abelian subgroup C1      NOp   1
                         Standard orientation:                         
 ---------------------------------------------------------------------
 Center     Atomic      Atomic             Coordinates (Angstroms)
 Number     Number       Type             X           Y           Z
 ---------------------------------------------------------------------
      1          6           0       -1.122294   -0.000037    0.000088
      2          6           0        1.122076   -0.000042    0.000102
      3          1           0       -1.695858    0.261510   -1.989686
      4          1           0       -1.695919    1.592135    1.220979
      5          1           0       -1.695938   -1.853401    0.768123
      6          1           0        1.696341    1.854796   -0.768843
      7          1           0        1.696341   -0.261526    1.990185
      8          1           0        1.696342   -1.593037   -1.221898
 ---------------------------------------------------------------------
 Rotational constants (GHZ):     20.7474758      8.4513701      8.4513460
 Leave Link  202 at Thu Mar 19 16:58:41 2026, MaxMem=   536870912 cpu:         0.0
 (Enter C:\G09W\l301.exe)
 Standard basis: 6-31G(d) (6D, 7F)
 Ernie: Thresh=  0.10000D-02 Tol=  0.10000D-05 Strict=F.
 There are    42 symmetry adapted cartesian basis functions of A   symmetry.
 There are    42 symmetry adapted basis functions of A   symmetry.
    42 basis functions,    80 primitive gaussians,    42 cartesian basis functions
     9 alpha electrons        9 beta electrons
       nuclear repulsion energy        25.1409749447 Hartrees.
 IExCor=  402 DFT=T Ex+Corr=B3LYP ExCW=0 ScaHFX=  0.200000
 ScaDFX=  0.800000  0.720000  1.000000  0.810000 ScalE2=  1.000000  1.000000
 IRadAn=      0 IRanWt=     -1 IRanGd=            0 ICorTp=0 IEmpDi=  4
 NAtoms=    8 NActive=    8 NUniq=    8 SFac= 1.00D+00 NAtFMM=   60 NAOKFM=F Big=F
 Integral buffers will be    131072 words long.
 Raffenetti 2 integral format.
 Two-electron integral symmetry is turned on.
 Leave Link  301 at Thu Mar 19 16:58:42 2026, MaxMem=   536870912 cpu:         0.0
 (Enter C:\G09W\l302.exe)
 NPDir=0 NMtPBC=     1 NCelOv=     1 NCel=       1 NClECP=     1 NCelD=      1
         NCelK=      1 NCelE2=     1 NClLst=     1 CellRange=     0.0.
 One-electron integrals computed using PRISM.
 NBasis=    42 RedAO= T EigKep=  4.58D-02  NBF=    42
 NBsUse=    42 1.00D-06 EigRej= -1.00D+00 NBFU=    42
 Precomputing XC quadrature grid using
 IXCGrd= 4 IRadAn=           0 IRanWt=          -1 IRanGd=           0 AccXCQ= 0.00D+00.
 Generated NRdTot=       0 NPtTot=           0 NUsed=           0 NTot=          32
 NSgBfM=    42    42    42    42    42 MxSgAt=     8 MxSgA2=     8.
 Leave Link  302 at Thu Mar 19 16:58:42 2026, MaxMem=   536870912 cpu:         0.0
 (Enter C:\G09W\l303.exe)
 DipDrv:  MaxL=1.
 Leave Link  303 at Thu Mar 19 16:58:43 2026, MaxMem=   536870912 cpu:         0.0
 (Enter C:\G09W\l401.exe)
 ExpMin= 1.61D-01 ExpMax= 3.05D+03 ExpMxC= 4.57D+02 IAcc=1 IRadAn=         1 AccDes= 0.00D+00
 Harris functional with IExCor=  402 and IRadAn=       1 diagonalized for initial guess.
 HarFok:  IExCor=  402 AccDes= 0.00D+00 IRadAn=         1 IDoV= 1 UseB2=F ITyADJ=14
 ICtDFT=  3500011 ScaDFX=  1.000000  1.000000  1.000000  1.000000
 FoFCou: FMM=F IPFlag=           0 FMFlag=      100000 FMFlg1=           0
         NFxFlg=           0 DoJE=T BraDBF=F KetDBF=T FulRan=T
         wScrn=  0.000000 ICntrl=     500 IOpCl=  0 I1Cent=   200000004 NGrid=           0
         NMat0=    1 NMatS0=      1 NMatT0=    0 NMatD0=    1 NMtDS0=    0 NMtDT0=    0
 Petite list used in FoFCou.
 Harris En= -78.9069892622272    
 JPrj=0 DoOrth=F DoCkMO=F.
 Leave Link  401 at Thu Mar 19 16:58:44 2026, MaxMem=   536870912 cpu:         0.0
 (Enter C:\G09W\l502.exe)
 Closed shell SCF:
 Using DIIS extrapolation, IDIIS=  1040.
 Integral symmetry usage will be decided dynamically.
 Keep R1 ints in memory in canonical form, NReq=1293450.
 IVT=       24424 IEndB=       24424 NGot=   536870912 MDV=   536438333
 LenX=   536438333 LenY=   536436128
 Requested convergence on RMS density matrix=1.00D-08 within 128 cycles.
 Requested convergence on MAX density matrix=1.00D-06.
 Requested convergence on             energy=1.00D-06.
 No special actions if energy rises.
 FoFCou: FMM=F IPFlag=           0 FMFlag=           0 FMFlg1=           0
         NFxFlg=           0 DoJE=F BraDBF=F KetDBF=F FulRan=T
         wScrn=  0.000000 ICntrl=     600 IOpCl=  0 I1Cent=           0 NGrid=           0
         NMat0=    1 NMatS0=    903 NMatT0=    0 NMatD0=    1 NMtDS0=    0 NMtDT0=    0
 Symmetry not used in FoFCou.
 Integral accuracy reduced to 1.0D-05 until final iterations.

 Cycle   1  Pass 0  IDiag  1:
 E= -78.8759812118492    
 DIIS: error= 2.08D-02 at cycle   1 NSaved=   1.
 NSaved= 1 IEnMin= 1 EnMin= -78.8759812118492     IErMin= 1 ErrMin= 2.08D-02
 ErrMax= 2.08D-02  0.00D+00 EMaxC= 1.00D-01 BMatC= 1.39D-02 BMatP= 1.39D-02
 IDIUse=3 WtCom= 7.92D-01 WtEn= 2.08D-01
 Coeff-Com:  0.100D+01
 Coeff-En:   0.100D+01
 Coeff:      0.100D+01
 Gap=     0.136 Goal=   None    Shift=    0.000
 GapD=    0.136 DampG=1.000 DampE=0.500 DampFc=0.5000 IDamp=-1.
 Damping current iteration by 5.00D-01
 RMSDP=9.07D-03 MaxDP=7.92D-02              OVMax= 2.09D-01

 Cycle   2  Pass 0  IDiag  1:
 E= -78.8408257170127     Delta-E=        0.035155494837 Rises=F Damp=T
 DIIS: error= 2.80D-02 at cycle   2 NSaved=   2.
 NSaved= 2 IEnMin= 1 EnMin= -78.8759812118492     IErMin= 1 ErrMin= 2.08D-02
 ErrMax= 2.80D-02  0.00D+00 EMaxC= 1.00D-01 BMatC= 2.10D-02 BMatP= 1.39D-02
 IDIUse=2 WtCom= 0.00D+00 WtEn= 1.00D+00
 Coeff-En:   0.760D+00 0.240D+00
 Coeff:      0.760D+00 0.240D+00
 Gap=     0.107 Goal=   None    Shift=    0.000
 RMSDP=1.03D-03 MaxDP=1.13D-02 DE= 3.52D-02 OVMax= 9.85D-02

 Cycle   3  Pass 0  IDiag  1:
 E= -78.8620174565991     Delta-E=       -0.021191739586 Rises=F Damp=F
 DIIS: error= 2.61D-02 at cycle   3 NSaved=   3.
 NSaved= 3 IEnMin= 1 EnMin= -78.8759812118492     IErMin= 1 ErrMin= 2.08D-02
 ErrMax= 2.61D-02  0.00D+00 EMaxC= 1.00D-01 BMatC= 1.91D-02 BMatP= 1.39D-02
 IDIUse=2 WtCom= 0.00D+00 WtEn= 1.00D+00
 Coeff-En:   0.613D+00 0.000D+00 0.387D+00
 Coeff:      0.613D+00 0.000D+00 0.387D+00
 Gap=     0.104 Goal=   None    Shift=    0.000
 RMSDP=2.59D-03 MaxDP=2.11D-02 DE=-2.12D-02 OVMax= 6.24D-02

 Cycle   4  Pass 0  IDiag  1:
 E= -78.8901988522905     Delta-E=       -0.028181395691 Rises=F Damp=F
 DIIS: error= 1.17D-03 at cycle   4 NSaved=   4.
 NSaved= 4 IEnMin= 4 EnMin= -78.8901988522905     IErMin= 4 ErrMin= 1.17D-03
 ErrMax= 1.17D-03  0.00D+00 EMaxC= 1.00D-01 BMatC= 3.75D-05 BMatP= 1.39D-02
 IDIUse=3 WtCom= 9.88D-01 WtEn= 1.17D-02
 Coeff-Com: -0.969D-01 0.234D+00-0.361D+00 0.122D+01
 Coeff-En:   0.000D+00 0.000D+00 0.000D+00 0.100D+01
 Coeff:     -0.958D-01 0.231D+00-0.357D+00 0.122D+01
 Gap=     0.104 Goal=   None    Shift=    0.000
 RMSDP=1.81D-04 MaxDP=1.63D-03 DE=-2.82D-02 OVMax= 4.24D-03

 Cycle   5  Pass 0  IDiag  1:
 E= -78.8902402773924     Delta-E=       -0.000041425102 Rises=F Damp=F
 DIIS: error= 5.19D-04 at cycle   5 NSaved=   5.
 NSaved= 5 IEnMin= 5 EnMin= -78.8902402773924     IErMin= 5 ErrMin= 5.19D-04
 ErrMax= 5.19D-04  0.00D+00 EMaxC= 1.00D-01 BMatC= 9.08D-06 BMatP= 3.75D-05
 IDIUse=3 WtCom= 9.95D-01 WtEn= 5.19D-03
 Coeff-Com: -0.303D-01 0.641D-01-0.814D-01 0.254D+00 0.793D+00
 Coeff-En:   0.000D+00 0.000D+00 0.000D+00 0.272D+00 0.728D+00
 Coeff:     -0.301D-01 0.637D-01-0.810D-01 0.255D+00 0.793D+00
 Gap=     0.104 Goal=   None    Shift=    0.000
 RMSDP=6.91D-05 MaxDP=8.95D-04 DE=-4.14D-05 OVMax= 2.02D-03

 Cycle   6  Pass 0  IDiag  1:
 E= -78.8902483409869     Delta-E=       -0.000008063594 Rises=F Damp=F
 DIIS: error= 4.48D-04 at cycle   6 NSaved=   6.
 NSaved= 6 IEnMin= 6 EnMin= -78.8902483409869     IErMin= 6 ErrMin= 4.48D-04
 ErrMax= 4.48D-04  0.00D+00 EMaxC= 1.00D-01 BMatC= 3.87D-06 BMatP= 9.08D-06
 IDIUse=3 WtCom= 9.96D-01 WtEn= 4.48D-03
 EnCoef did     7 forward-backward iterations
 Coeff-Com: -0.320D-02 0.250D-02 0.104D-01 0.176D-01 0.702D+00 0.271D+00
 Coeff-En:   0.000D+00 0.000D+00 0.000D+00 0.933D-01 0.285D+00 0.621D+00
 Coeff:     -0.319D-02 0.249D-02 0.103D-01 0.179D-01 0.700D+00 0.273D+00
 Gap=     0.104 Goal=   None    Shift=    0.000
 RMSDP=3.93D-05 MaxDP=5.06D-04 DE=-8.06D-06 OVMax= 1.03D-03

 Cycle   7  Pass 0  IDiag  1:
 E= -78.8902536790155     Delta-E=       -0.000005338029 Rises=F Damp=F
 DIIS: error= 2.94D-05 at cycle   7 NSaved=   7.
 NSaved= 7 IEnMin= 7 EnMin= -78.8902536790155     IErMin= 7 ErrMin= 2.94D-05
 ErrMax= 2.94D-05  0.00D+00 EMaxC= 1.00D-01 BMatC= 2.15D-08 BMatP= 3.87D-06
 IDIUse=1 WtCom= 1.00D+00 WtEn= 0.00D+00
 Coeff-Com: -0.375D-02 0.689D-02-0.823D-02-0.126D-01 0.419D-01 0.735D-01
 Coeff-Com:  0.902D+00
 Coeff:     -0.375D-02 0.689D-02-0.823D-02-0.126D-01 0.419D-01 0.735D-01
 Coeff:      0.902D+00
 Gap=     0.104 Goal=   None    Shift=    0.000
 RMSDP=5.29D-06 MaxDP=5.04D-05 DE=-5.34D-06 OVMax= 1.51D-04

 Initial convergence to 1.0D-05 achieved.  Increase integral accuracy.
 Cycle   8  Pass 1  IDiag  1:
 E= -78.8902352751796     Delta-E=        0.000018403836 Rises=F Damp=F
 DIIS: error= 7.82D-06 at cycle   1 NSaved=   1.
 NSaved= 1 IEnMin= 1 EnMin= -78.8902352751796     IErMin= 1 ErrMin= 7.82D-06
 ErrMax= 7.82D-06  0.00D+00 EMaxC= 1.00D-01 BMatC= 1.60D-09 BMatP= 1.60D-09
 IDIUse=1 WtCom= 1.00D+00 WtEn= 0.00D+00
 Coeff-Com:  0.100D+01
 Coeff:      0.100D+01
 Gap=     0.104 Goal=   None    Shift=    0.000
 RMSDP=5.29D-06 MaxDP=5.04D-05 DE= 1.84D-05 OVMax= 1.35D-04

 Cycle   9  Pass 1  IDiag  1:
 E= -78.8902352618636     Delta-E=        0.000000013316 Rises=F Damp=F
 DIIS: error= 1.88D-05 at cycle   2 NSaved=   2.
 NSaved= 2 IEnMin= 1 EnMin= -78.8902352751796     IErMin= 1 ErrMin= 7.82D-06
 ErrMax= 1.88D-05  0.00D+00 EMaxC= 1.00D-01 BMatC= 7.60D-09 BMatP= 1.60D-09
 IDIUse=1 WtCom= 1.00D+00 WtEn= 0.00D+00
 Coeff-Com:  0.709D+00 0.291D+00
 Coeff:      0.709D+00 0.291D+00
 Gap=     0.104 Goal=   None    Shift=    0.000
 RMSDP=3.37D-06 MaxDP=4.53D-05 DE= 1.33D-08 OVMax= 1.11D-04

 Cycle  10  Pass 1  IDiag  1:
 E= -78.8902352815866     Delta-E=       -0.000000019723 Rises=F Damp=F
 DIIS: error= 5.14D-06 at cycle   3 NSaved=   3.
 NSaved= 3 IEnMin= 3 EnMin= -78.8902352815866     IErMin= 3 ErrMin= 5.14D-06
 ErrMax= 5.14D-06  0.00D+00 EMaxC= 1.00D-01 BMatC= 5.72D-10 BMatP= 1.60D-09
 IDIUse=1 WtCom= 1.00D+00 WtEn= 0.00D+00
 Coeff-Com:  0.332D+00 0.199D+00 0.470D+00
 Coeff:      0.332D+00 0.199D+00 0.470D+00
 Gap=     0.104 Goal=   None    Shift=    0.000
 RMSDP=1.17D-06 MaxDP=1.37D-05 DE=-1.97D-08 OVMax= 3.50D-05

 Cycle  11  Pass 1  IDiag  1:
 E= -78.8902352813639     Delta-E=        0.000000000223 Rises=F Damp=F
 DIIS: error= 4.64D-06 at cycle   4 NSaved=   4.
 NSaved= 4 IEnMin= 3 EnMin= -78.8902352815866     IErMin= 4 ErrMin= 4.64D-06
 ErrMax= 4.64D-06  0.00D+00 EMaxC= 1.00D-01 BMatC= 7.06D-10 BMatP= 5.72D-10
 IDIUse=1 WtCom= 1.00D+00 WtEn= 0.00D+00
 Coeff-Com: -0.561D-01 0.390D-01 0.565D+00 0.452D+00
 Coeff:     -0.561D-01 0.390D-01 0.565D+00 0.452D+00
 Gap=     0.104 Goal=   None    Shift=    0.000
 RMSDP=6.93D-07 MaxDP=9.23D-06 DE= 2.23D-10 OVMax= 2.11D-05

 Cycle  12  Pass 1  IDiag  1:
 E= -78.8902352826759     Delta-E=       -0.000000001312 Rises=F Damp=F
 DIIS: error= 5.62D-07 at cycle   5 NSaved=   5.
 NSaved= 5 IEnMin= 5 EnMin= -78.8902352826759     IErMin= 5 ErrMin= 5.62D-07
 ErrMax= 5.62D-07  0.00D+00 EMaxC= 1.00D-01 BMatC= 1.07D-11 BMatP= 5.72D-10
 IDIUse=1 WtCom= 1.00D+00 WtEn= 0.00D+00
 Coeff-Com: -0.388D-01-0.610D-02 0.197D+00 0.120D+00 0.728D+00
 Coeff:     -0.388D-01-0.610D-02 0.197D+00 0.120D+00 0.728D+00
 Gap=     0.104 Goal=   None    Shift=    0.000
 RMSDP=1.69D-07 MaxDP=1.81D-06 DE=-1.31D-09 OVMax= 4.26D-06

 Cycle  13  Pass 1  IDiag  1:
 E= -78.8902352826726     Delta-E=        0.000000000003 Rises=F Damp=F
 DIIS: error= 9.28D-07 at cycle   6 NSaved=   6.
 NSaved= 6 IEnMin= 5 EnMin= -78.8902352826759     IErMin= 5 ErrMin= 5.62D-07
 ErrMax= 9.28D-07  0.00D+00 EMaxC= 1.00D-01 BMatC= 1.90D-11 BMatP= 1.07D-11
 IDIUse=1 WtCom= 1.00D+00 WtEn= 0.00D+00
 Coeff-Com: -0.227D-01-0.147D-01 0.629D-01 0.591D-02 0.663D+00 0.306D+00
 Coeff:     -0.227D-01-0.147D-01 0.629D-01 0.591D-02 0.663D+00 0.306D+00
 Gap=     0.104 Goal=   None    Shift=    0.000
 RMSDP=9.29D-08 MaxDP=1.01D-06 DE= 3.28D-12 OVMax= 2.08D-06

 Cycle  14  Pass 1  IDiag  1:
 E= -78.8902352826998     Delta-E=       -0.000000000027 Rises=F Damp=F
 DIIS: error= 1.64D-07 at cycle   7 NSaved=   7.
 NSaved= 7 IEnMin= 7 EnMin= -78.8902352826998     IErMin= 7 ErrMin= 1.64D-07
 ErrMax= 1.64D-07  0.00D+00 EMaxC= 1.00D-01 BMatC= 8.19D-13 BMatP= 1.07D-11
 IDIUse=1 WtCom= 1.00D+00 WtEn= 0.00D+00
 Coeff-Com: -0.752D-02-0.964D-02 0.249D-02-0.256D-01 0.315D+00 0.203D+00
 Coeff-Com:  0.522D+00
 Coeff:     -0.752D-02-0.964D-02 0.249D-02-0.256D-01 0.315D+00 0.203D+00
 Coeff:      0.522D+00
 Gap=     0.104 Goal=   None    Shift=    0.000
 RMSDP=4.36D-08 MaxDP=4.18D-07 DE=-2.72D-11 OVMax= 1.14D-06

 Cycle  15  Pass 1  IDiag  1:
 E= -78.8902352827010     Delta-E=       -0.000000000001 Rises=F Damp=F
 DIIS: error= 5.75D-08 at cycle   8 NSaved=   8.
 NSaved= 8 IEnMin= 8 EnMin= -78.8902352827010     IErMin= 8 ErrMin= 5.75D-08
 ErrMax= 5.75D-08  0.00D+00 EMaxC= 1.00D-01 BMatC= 7.19D-14 BMatP= 8.19D-13
 IDIUse=1 WtCom= 1.00D+00 WtEn= 0.00D+00
 Coeff-Com:  0.864D-03-0.274D-02-0.150D-01-0.189D-01 0.438D-01 0.541D-01
 Coeff-Com:  0.293D+00 0.645D+00
 Coeff:      0.864D-03-0.274D-02-0.150D-01-0.189D-01 0.438D-01 0.541D-01
 Coeff:      0.293D+00 0.645D+00
 Gap=     0.104 Goal=   None    Shift=    0.000
 RMSDP=1.35D-08 MaxDP=1.50D-07 DE=-1.18D-12 OVMax= 3.68D-07

 Cycle  16  Pass 1  IDiag  1:
 E= -78.8902352827013     Delta-E=        0.000000000000 Rises=F Damp=F
 DIIS: error= 1.10D-08 at cycle   9 NSaved=   9.
 NSaved= 9 IEnMin= 9 EnMin= -78.8902352827013     IErMin= 9 ErrMin= 1.10D-08
 ErrMax= 1.10D-08  0.00D+00 EMaxC= 1.00D-01 BMatC= 3.47D-15 BMatP= 7.19D-14
 IDIUse=1 WtCom= 1.00D+00 WtEn= 0.00D+00
 Coeff-Com:  0.406D-03-0.658D-03-0.546D-02-0.517D-02 0.106D-01 0.168D-01
 Coeff-Com:  0.875D-01 0.214D+00 0.682D+00
 Coeff:      0.406D-03-0.658D-03-0.546D-02-0.517D-02 0.106D-01 0.168D-01
 Coeff:      0.875D-01 0.214D+00 0.682D+00
 Gap=     0.104 Goal=   None    Shift=    0.000
 RMSDP=2.15D-09 MaxDP=2.01D-08 DE=-2.98D-13 OVMax= 7.75D-08

 SCF Done:  E(RB3LYP) =  -78.8902352827     A.U. after   16 cycles
            NFock= 16  Conv=0.22D-08     -V/T= 2.0299
 KE= 7.660102394032D+01 PE=-2.310333120392D+02 EE= 5.040107787144D+01
 Leave Link  502 at Thu Mar 19 16:58:46 2026, MaxMem=   536870912 cpu:         2.0
 (Enter C:\G09W\l601.exe)
 Copying SCF densities to generalized density rwf, IOpCl= 0 IROHF=0.

 **********************************************************************

            Population analysis using the SCF density.

 **********************************************************************

 Orbital symmetries:
       Occupied  (A) (A) (A) (A) (A) (A) (A) (A) (A)
       Virtual   (A) (A) (A) (A) (A) (A) (A) (A) (A) (A) (A) (A)
                 (A) (A) (A) (A) (A) (A) (A) (A) (A) (A) (A) (A)
                 (A) (A) (A) (A) (A) (A) (A) (A) (A)
 The electronic state is 1-A.
 Alpha  occ. eigenvalues --  -10.37477 -10.37473  -0.60252  -0.52717  -0.30427
 Alpha  occ. eigenvalues --   -0.30427  -0.28246  -0.28034  -0.28033
 Alpha virt. eigenvalues --   -0.17621  -0.15277  -0.09512  -0.09511  -0.06619
 Alpha virt. eigenvalues --   -0.06619  -0.03712   0.55623   0.55985   0.55985
 Alpha virt. eigenvalues --    0.62288   0.64462   0.64463   0.66225   0.80811
 Alpha virt. eigenvalues --    0.80812   0.80842   0.81633   0.82772   0.82772
 Alpha virt. eigenvalues --    0.90333   1.56234   1.64020   1.64020   1.68024
 Alpha virt. eigenvalues --    1.68024   1.68914   1.68915   1.72449   1.72449
 Alpha virt. eigenvalues --    2.00878   3.84465   3.90998
          Condensed to atoms (all electrons):
               1          2          3          4          5          6
     1  C    5.357861   0.169993   0.174930   0.174980   0.175000  -0.005165
     2  C    0.169993   5.358141  -0.005174  -0.005176  -0.005178   0.174730
     3  H    0.174930  -0.005174   0.825046  -0.003849  -0.003849   0.000221
     4  H    0.174980  -0.005176  -0.003849   0.824953  -0.003849   0.000221
     5  H    0.175000  -0.005178  -0.003849  -0.003849   0.824914   0.000033
     6  H   -0.005165   0.174730   0.000221   0.000221   0.000033   0.825401
     7  H   -0.005169   0.174807   0.000033   0.000221   0.000221  -0.003838
     8  H   -0.005166   0.174750   0.000221   0.000033   0.000221  -0.003837
               7          8
     1  C   -0.005169  -0.005166
     2  C    0.174807   0.174750
     3  H    0.000033   0.000221
     4  H    0.000221   0.000033
     5  H    0.000221   0.000221
     6  H   -0.003838  -0.003837
     7  H    0.825269  -0.003838
     8  H   -0.003838   0.825369
 Mulliken charges:
               1
     1  C   -0.037262
     2  C   -0.036891
     3  H    0.012420
     4  H    0.012467
     5  H    0.012488
     6  H    0.012234
     7  H    0.012295
     8  H    0.012249
 Sum of Mulliken charges =   0.00000
 Mulliken charges with hydrogens summed into heavy atoms:
               1
     1  C    0.000113
     2  C   -0.000113
 Electronic spatial extent (au):  <R**2>=            241.3961
 Charge=              0.0000 electrons
 Dipole moment (field-independent basis, Debye):
    X=             -0.0030    Y=             -0.0004    Z=              0.0009  Tot=              0.0032
 Quadrupole moment (field-independent basis, Debye-Ang):
   XX=            -19.1780   YY=            -16.9624   ZZ=            -16.9626
   XY=              0.0001   XZ=             -0.0001   YZ=              0.0000
 Traceless Quadrupole moment (field-independent basis, Debye-Ang):
   XX=             -1.4770   YY=              0.7386   ZZ=              0.7384
   XY=              0.0001   XZ=             -0.0001   YZ=              0.0000
 Octapole moment (field-independent basis, Debye-Ang**2):
  XXX=             -0.0169  YYY=             -0.0017  ZZZ=             -0.0004  XYY=             -0.0084
  XXY=             -0.0012  XXZ=              0.0028  XZZ=             -0.0063  YZZ=              0.0007
  YYZ=              0.0028  XYZ=              0.0000
 Hexadecapole moment (field-independent basis, Debye-Ang**3):
 XXXX=           -244.0853 YYYY=            -92.8003 ZZZZ=            -92.7999 XXXY=              0.0007
 XXXZ=             -0.0004 YYYX=              3.6433 YYYZ=             -0.0001 ZZZX=              8.8114
 ZZZY=             -0.0001 XXYY=            -48.1978 XXZZ=            -48.1985 YYZZ=            -30.9334
 XXYZ=             -0.0001 YYXZ=             -8.8117 ZZXY=             -3.6426
 N-N= 2.514097494473D+01 E-N=-2.310333124576D+02  KE= 7.660102394032D+01
 No NMR shielding tensors so no spin-rotation constants.
 Leave Link  601 at Thu Mar 19 16:58:46 2026, MaxMem=   536870912 cpu:         0.0
 (Enter C:\G09W\l701.exe)
 Compute integral first derivatives.
 ... and contract with generalized density number  0.
 Leave Link  701 at Thu Mar 19 16:58:47 2026, MaxMem=   536870912 cpu:         0.0
 (Enter C:\G09W\l702.exe)
 L702 exits ... SP integral derivatives will be done elsewhere.
 Leave Link  702 at Thu Mar 19 16:58:47 2026, MaxMem=   536870912 cpu:         0.0
 (Enter C:\G09W\l703.exe)
 Compute integral first derivatives, UseDBF=F ICtDFT=           0.
 Integral derivatives from FoFJK, PRISM(SPDF).
 Calling FoFJK, ICntrl=      2127 FMM=F ISym2X=0 I1Cent= 0 IOpClX= 0 NMat=1 NMatS=1 NMatT=0.
 FoFJK:  IHMeth= 1 ICntrl=    2127 DoSepK=F KAlg= 0 I1Cent=   0 FoldK=F
 IRaf=         0 NMat=   1 IRICut=       1 DoRegI=T DoRafI=F ISym2E= 0.
 FoFCou: FMM=F IPFlag=           0 FMFlag=      100000 FMFlg1=         800
         NFxFlg=           0 DoJE=F BraDBF=F KetDBF=F FulRan=T
         wScrn=  0.000000 ICntrl=    2127 IOpCl=  0 I1Cent=           0 NGrid=           0
         NMat0=    1 NMatS0=      1 NMatT0=    0 NMatD0=    1 NMtDS0=    0 NMtDT0=    0
 Symmetry not used in FoFCou.
 Leave Link  703 at Thu Mar 19 16:58:48 2026, MaxMem=   536870912 cpu:         1.0
 (Enter C:\G09W\l716.exe)
 Dipole        =-1.18289267D-03-1.43864742D-04 3.43662658D-04
 ***** Axes restored to original set *****
 -------------------------------------------------------------------
 Center     Atomic                   Forces (Hartrees/Bohr)
 Number     Number              X              Y              Z
 -------------------------------------------------------------------
      1        6           0.019059453    0.002268092    0.000161067
      2        6          -0.019076434   -0.002275143   -0.000187395
      3        1           0.018078335   -0.023302840   -0.051650629
      4        1           0.007824098    0.058838244    0.004122716
      5        1           0.018043934   -0.030307034    0.047927427
      6        1          -0.018019130    0.030241333   -0.047847334
      7        1          -0.018085755    0.023285443    0.051606854
      8        1          -0.007824501   -0.058748094   -0.004132705
 -------------------------------------------------------------------
 Cartesian Forces:  Max     0.058838244 RMS     0.030240212
 Leave Link  716 at Thu Mar 19 16:58:48 2026, MaxMem=   536870912 cpu:         0.0
 (Enter C:\G09W\l103.exe)

 GradGradGradGradGradGradGradGradGradGradGradGradGradGradGradGradGradGrad
 Berny optimization.
 FormGI is forming the generalized inverse of G from B-inverse, IUseBI=4.
 Internal  Forces:  Max     0.063452695 RMS     0.030098935
 Search for a local minimum.
 Step number   1 out of a maximum of   38
 All quantities printed in internal units (Hartrees-Bohrs-Radians)
 RMS Force = .30099D-01 SwitMx=.10000D-02 MixMth= 1
 Mixed Optimization -- RFO/linear search
 Second derivative matrix not updated -- first step.
 ITU=  0
     Eigenvalues ---    0.00230   0.03734   0.03735   0.03738   0.03740
     Eigenvalues ---    0.03743   0.03744   0.05515   0.06359   0.06360
     Eigenvalues ---    0.06361   0.06362   0.16000   0.16000   0.16000
     Eigenvalues ---    0.16000   0.16000   0.16000
 RFO step:  Lambda=-1.40334181D-01 EMin= 2.30000000D-03
 Linear search not attempted -- first point.
 Maximum step size (   0.300) exceeded in Quadratic search.
    -- Step size scaled by   0.340
 Iteration  1 RMS(Cart)=  0.06373096 RMS(Int)=  0.00008615
 Iteration  2 RMS(Cart)=  0.00024363 RMS(Int)=  0.00000770
 Iteration  3 RMS(Cart)=  0.00000002 RMS(Int)=  0.00000770
 ITry= 1 IFail=0 DXMaxC= 1.21D-01 DCOld= 1.00D+10 DXMaxT= 3.00D-01 DXLimC= 3.00D+00 Rises=F
 Variable       Old X    -DE/DX   Delta X   Delta X   Delta X     New X
                                 (Linear)    (Quad)   (Total)
    R1        4.24125  -0.06345   0.00000  -0.11040  -0.11040   4.13084
    R2        3.94432  -0.05946   0.00000  -0.11378  -0.11378   3.83054
    R3        3.94344  -0.05948   0.00000  -0.11380  -0.11380   3.82964
    R4        3.94310  -0.05948   0.00000  -0.11381  -0.11381   3.82930
    R5        3.94653  -0.05938   0.00000  -0.11367  -0.11367   3.83286
    R6        3.94522  -0.05941   0.00000  -0.11371  -0.11371   3.83151
    R7        3.94618  -0.05939   0.00000  -0.11368  -0.11368   3.83250
    A1        1.84918   0.00376   0.00000   0.00426   0.00425   1.85343
    A2        1.84926   0.00376   0.00000   0.00426   0.00425   1.85351
    A3        1.84930   0.00376   0.00000   0.00426   0.00425   1.85354
    A4        1.96773  -0.00323   0.00000  -0.00366  -0.00367   1.96407
    A5        1.96779  -0.00323   0.00000  -0.00366  -0.00367   1.96412
    A6        1.96793  -0.00324   0.00000  -0.00367  -0.00368   1.96425
    A7        1.84936   0.00374   0.00000   0.00424   0.00423   1.85359
    A8        1.84946   0.00375   0.00000   0.00424   0.00423   1.85369
    A9        1.84939   0.00374   0.00000   0.00424   0.00423   1.85361
   A10        1.96771  -0.00322   0.00000  -0.00365  -0.00366   1.96405
   A11        1.96757  -0.00322   0.00000  -0.00364  -0.00366   1.96391
   A12        1.96777  -0.00322   0.00000  -0.00365  -0.00366   1.96411
    D1        1.04710   0.00000   0.00000   0.00000   0.00000   1.04710
    D2        3.14154   0.00000   0.00000   0.00000   0.00000   3.14154
    D3       -1.04713   0.00000   0.00000   0.00000   0.00000  -1.04713
    D4       -1.04717   0.00000   0.00000   0.00000   0.00000  -1.04717
    D5        1.04727   0.00000   0.00000   0.00000   0.00000   1.04726
    D6       -3.14140   0.00000   0.00000  -0.00001  -0.00001  -3.14141
    D7        3.14146   0.00000   0.00000   0.00000   0.00000   3.14146
    D8       -1.04729   0.00000   0.00000   0.00001   0.00001  -1.04729
    D9        1.04722   0.00000   0.00000   0.00000   0.00000   1.04722
         Item               Value     Threshold  Converged?
 Maximum Force            0.063453     0.000450     NO 
 RMS     Force            0.030099     0.000300     NO 
 Maximum Displacement     0.121213     0.001800     NO 
 RMS     Displacement     0.063810     0.001200     NO 
 Predicted change in Energy=-4.592906D-02
 Lowest energy point so far.  Saving SCF results.
 GradGradGradGradGradGradGradGradGradGradGradGradGradGradGradGradGradGrad

 Leave Link  103 at Thu Mar 19 16:58:48 2026, MaxMem=   536870912 cpu:         0.0
 (Enter C:\G09W\l202.exe)
                          Input orientation:                          
 ---------------------------------------------------------------------
 Center     Atomic      Atomic             Coordinates (Angstroms)
 Number     Number       Type             X           Y           Z
 ---------------------------------------------------------------------
      1          6           0       -1.085510   -0.129159   -0.009807
      2          6           0        1.085053    0.129018    0.009350
      3          1           0       -1.762914    0.650151    1.734518
      4          1           0       -1.416386   -2.123623   -0.149701
      5          1           0       -1.761310    0.885847   -1.628221
      6          1           0        1.761539   -0.886695    1.629395
      7          1           0        1.763143   -0.650449   -1.735234
      8          1           0        1.416384    2.124910    0.149701
 ---------------------------------------------------------------------
                    Distance matrix (angstroms):
                    1          2          3          4          5
     1  C    0.000000
     2  C    2.185948   0.000000
     3  H    2.027035   3.370267   0.000000
     4  H    2.026557   3.369997   3.371080   0.000000
     5  H    2.026377   3.369898   3.370989   3.370742   0.000000
     6  H    3.371429   2.028263   3.846390   3.846346   5.115118
     7  H    3.371004   2.027548   5.115058   3.846240   3.846223
     8  H    3.371312   2.028070   3.846361   5.115101   3.846300
                    6          7          8
     6  H    0.000000
     7  H    3.372913   0.000000
     8  H    3.373187   3.372810   0.000000
 Stoichiometry    C2H6
 Framework group  C1[X(C2H6)]
 Deg. of freedom    18
 Full point group                 C1      NOp   1
 RotChk:  IX=0 Diff= 4.57D-02
 Largest Abelian subgroup         C1      NOp   1
 Largest concise Abelian subgroup C1      NOp   1
                         Standard orientation:                         
 ---------------------------------------------------------------------
 Center     Atomic      Atomic             Coordinates (Angstroms)
 Number     Number       Type             X           Y           Z
 ---------------------------------------------------------------------
      1          6           0       -1.093079   -0.000040    0.000086
      2          6           0        1.092868   -0.000046    0.000101
      3          1           0       -1.658372    0.315892   -1.920722
      4          1           0       -1.658417    1.505215    1.233592
      5          1           0       -1.658437   -1.820843    0.686563
      6          1           0        1.658838    1.822337   -0.687249
      7          1           0        1.658822   -0.315937    1.921261
      8          1           0        1.658831   -1.506152   -1.234564
 ---------------------------------------------------------------------
 Rotational constants (GHZ):     22.0515351      8.9030914      8.9030668
 Leave Link  202 at Thu Mar 19 16:58:49 2026, MaxMem=   536870912 cpu:         0.0
 (Enter C:\G09W\l301.exe)
 Standard basis: 6-31G(d) (6D, 7F)
 Ernie: Thresh=  0.10000D-02 Tol=  0.10000D-05 Strict=F.
 There are    42 symmetry adapted cartesian basis functions of A   symmetry.
 There are    42 symmetry adapted basis functions of A   symmetry.
    42 basis functions,    80 primitive gaussians,    42 cartesian basis functions
     9 alpha electrons        9 beta electrons
       nuclear repulsion energy        25.8411085047 Hartrees.
 IExCor=  402 DFT=T Ex+Corr=B3LYP ExCW=0 ScaHFX=  0.200000
 ScaDFX=  0.800000  0.720000  1.000000  0.810000 ScalE2=  1.000000  1.000000
 IRadAn=      0 IRanWt=     -1 IRanGd=            0 ICorTp=0 IEmpDi=  4
 NAtoms=    8 NActive=    8 NUniq=    8 SFac= 1.00D+00 NAtFMM=   60 NAOKFM=F Big=F
 Integral buffers will be    131072 words long.
 Raffenetti 2 integral format.
 Two-electron integral symmetry is turned on.
 Leave Link  301 at Thu Mar 19 16:58:49 2026, MaxMem=   536870912 cpu:         0.0
 (Enter C:\G09W\l302.exe)
 NPDir=0 NMtPBC=     1 NCelOv=     1 NCel=       1 NClECP=     1 NCelD=      1
         NCelK=      1 NCelE2=     1 NClLst=     1 CellRange=     0.0.
 One-electron integrals computed using PRISM.
 NBasis=    42 RedAO= T EigKep=  4.51D-02  NBF=    42
 NBsUse=    42 1.00D-06 EigRej= -1.00D+00 NBFU=    42
 Precomputing XC quadrature grid using
 IXCGrd= 4 IRadAn=           0 IRanWt=          -1 IRanGd=           0 AccXCQ= 0.00D+00.
 Generated NRdTot=       0 NPtTot=           0 NUsed=           0 NTot=          32
 NSgBfM=    42    42    42    42    42 MxSgAt=     8 MxSgA2=     8.
 Leave Link  302 at Thu Mar 19 16:58:49 2026, MaxMem=   536870912 cpu:         0.0
 (Enter C:\G09W\l303.exe)
 DipDrv:  MaxL=1.
 Leave Link  303 at Thu Mar 19 16:58:49 2026, MaxMem=   536870912 cpu:         0.0
 (Enter C:\G09W\l401.exe)
 Initial guess from the checkpoint file:  "ethane_xtb.chk"
 B after Tr=     0.000000    0.000000    0.000000
         Rot=    0.999869   -0.016161    0.000000    0.000000 Ang=  -1.85 deg.
 Guess basis will be translated and rotated to current coordinates.
 JPrj=2 DoOrth=T DoCkMO=T.
 Generating alternative initial guess.
 ExpMin= 1.61D-01 ExpMax= 3.05D+03 ExpMxC= 4.57D+02 IAcc=1 IRadAn=         1 AccDes= 0.00D+00
 Harris functional with IExCor=  402 and IRadAn=       1 diagonalized for initial guess.
 HarFok:  IExCor=  402 AccDes= 0.00D+00 IRadAn=         1 IDoV= 1 UseB2=F ITyADJ=14
 ICtDFT=  3500011 ScaDFX=  1.000000  1.000000  1.000000  1.000000
 FoFCou: FMM=F IPFlag=           0 FMFlag=      100000 FMFlg1=           0
         NFxFlg=           0 DoJE=T BraDBF=F KetDBF=T FulRan=T
         wScrn=  0.000000 ICntrl=     500 IOpCl=  0 I1Cent=   200000004 NGrid=           0
         NMat0=    1 NMatS0=      1 NMatT0=    0 NMatD0=    1 NMtDS0=    0 NMtDT0=    0
 Petite list used in FoFCou.
 Harris En= -78.9506882503377    
 Leave Link  401 at Thu Mar 19 16:58:49 2026, MaxMem=   536870912 cpu:         0.0
 (Enter C:\G09W\l502.exe)
 Closed shell SCF:
 Using DIIS extrapolation, IDIIS=  1040.
 Integral symmetry usage will be decided dynamically.
 Keep R1 ints in memory in canonical form, NReq=1293450.
 IVT=       24424 IEndB=       24424 NGot=   536870912 MDV=   536438333
 LenX=   536438333 LenY=   536436128
 Requested convergence on RMS density matrix=1.00D-08 within 128 cycles.
 Requested convergence on MAX density matrix=1.00D-06.
 Requested convergence on             energy=1.00D-06.
 No special actions if energy rises.
 FoFCou: FMM=F IPFlag=           0 FMFlag=           0 FMFlg1=           0
         NFxFlg=           0 DoJE=F BraDBF=F KetDBF=F FulRan=T
         wScrn=  0.000000 ICntrl=     600 IOpCl=  0 I1Cent=           0 NGrid=           0
         NMat0=    1 NMatS0=    903 NMatT0=    0 NMatD0=    1 NMtDS0=    0 NMtDT0=    0
 Symmetry not used in FoFCou.
 Integral accuracy reduced to 1.0D-05 until final iterations.

 Cycle   1  Pass 0  IDiag  1:
 E= -78.9390001727043    
 DIIS: error= 2.64D-03 at cycle   1 NSaved=   1.
 NSaved= 1 IEnMin= 1 EnMin= -78.9390001727043     IErMin= 1 ErrMin= 2.64D-03
 ErrMax= 2.64D-03  0.00D+00 EMaxC= 1.00D-01 BMatC= 2.39D-04 BMatP= 2.39D-04
 IDIUse=3 WtCom= 9.74D-01 WtEn= 2.64D-02
 Coeff-Com:  0.100D+01
 Coeff-En:   0.100D+01
 Coeff:      0.100D+01
 Gap=     2.990 Goal=   None    Shift=    0.000
 GapD=    2.990 DampG=2.000 DampE=1.000 DampFc=2.0000 IDamp=-1.
 RMSDP=8.93D-04 MaxDP=7.18D-03              OVMax= 1.52D-02

 Cycle   2  Pass 0  IDiag  1:
 E= -78.9389311032267     Delta-E=        0.000069069478 Rises=F Damp=F
 DIIS: error= 4.02D-03 at cycle   2 NSaved=   2.
 NSaved= 2 IEnMin= 1 EnMin= -78.9390001727043     IErMin= 1 ErrMin= 2.64D-03
 ErrMax= 4.02D-03  0.00D+00 EMaxC= 1.00D-01 BMatC= 5.05D-04 BMatP= 2.39D-04
 IDIUse=3 WtCom= 1.36D-01 WtEn= 8.64D-01
 Coeff-Com:  0.636D+00 0.364D+00
 Coeff-En:   0.540D+00 0.460D+00
 Coeff:      0.553D+00 0.447D+00
 Gap=     0.115 Goal=   None    Shift=    0.000
 RMSDP=9.58D-04 MaxDP=7.56D-03 DE= 6.91D-05 OVMax= 2.30D-02

 Cycle   3  Pass 0  IDiag  1:
 E= -78.9386581410251     Delta-E=        0.000272962202 Rises=F Damp=F
 DIIS: error= 4.86D-03 at cycle   3 NSaved=   3.
 NSaved= 3 IEnMin= 1 EnMin= -78.9390001727043     IErMin= 1 ErrMin= 2.64D-03
 ErrMax= 4.86D-03  0.00D+00 EMaxC= 1.00D-01 BMatC= 6.52D-04 BMatP= 2.39D-04
 IDIUse=3 WtCom= 1.25D-01 WtEn= 8.75D-01
 Coeff-Com: -0.352D-01 0.547D+00 0.489D+00
 Coeff-En:   0.000D+00 0.550D+00 0.450D+00
 Coeff:     -0.442D-02 0.550D+00 0.455D+00
 Gap=     0.115 Goal=   None    Shift=    0.000
 RMSDP=5.03D-04 MaxDP=4.02D-03 DE= 2.73D-04 OVMax= 1.26D-02

 Cycle   4  Pass 0  IDiag  1:
 E= -78.9396627617098     Delta-E=       -0.001004620685 Rises=F Damp=F
 DIIS: error= 2.41D-04 at cycle   4 NSaved=   4.
 NSaved= 4 IEnMin= 4 EnMin= -78.9396627617098     IErMin= 4 ErrMin= 2.41D-04
 ErrMax= 2.41D-04  0.00D+00 EMaxC= 1.00D-01 BMatC= 1.77D-06 BMatP= 2.39D-04
 IDIUse=3 WtCom= 9.98D-01 WtEn= 2.41D-03
 Coeff-Com: -0.124D-01 0.312D-01-0.212D-01 0.100D+01
 Coeff-En:   0.000D+00 0.000D+00 0.000D+00 0.100D+01
 Coeff:     -0.124D-01 0.311D-01-0.212D-01 0.100D+01
 Gap=     0.115 Goal=   None    Shift=    0.000
 RMSDP=2.99D-05 MaxDP=2.64D-04 DE=-1.00D-03 OVMax= 8.07D-04

 Cycle   5  Pass 0  IDiag  1:
 E= -78.9396654326909     Delta-E=       -0.000002670981 Rises=F Damp=F
 DIIS: error= 3.04D-05 at cycle   5 NSaved=   5.
 NSaved= 5 IEnMin= 5 EnMin= -78.9396654326909     IErMin= 5 ErrMin= 3.04D-05
 ErrMax= 3.04D-05  0.00D+00 EMaxC= 1.00D-01 BMatC= 1.81D-08 BMatP= 1.77D-06
 IDIUse=1 WtCom= 1.00D+00 WtEn= 0.00D+00
 Coeff-Com: -0.464D-02 0.620D-02-0.137D-01 0.384D+00 0.629D+00
 Coeff:     -0.464D-02 0.620D-02-0.137D-01 0.384D+00 0.629D+00
 Gap=     0.115 Goal=   None    Shift=    0.000
 RMSDP=6.67D-06 MaxDP=7.30D-05 DE=-2.67D-06 OVMax= 1.55D-04

 Initial convergence to 1.0D-05 achieved.  Increase integral accuracy.
 Cycle   6  Pass 1  IDiag  1:
 E= -78.9396544918062     Delta-E=        0.000010940885 Rises=F Damp=F
 DIIS: error= 5.52D-05 at cycle   1 NSaved=   1.
 NSaved= 1 IEnMin= 1 EnMin= -78.9396544918062     IErMin= 1 ErrMin= 5.52D-05
 ErrMax= 5.52D-05  0.00D+00 EMaxC= 1.00D-01 BMatC= 5.46D-08 BMatP= 5.46D-08
 IDIUse=1 WtCom= 1.00D+00 WtEn= 0.00D+00
 Coeff-Com:  0.100D+01
 Coeff:      0.100D+01
 Gap=     0.115 Goal=   None    Shift=    0.000
 RMSDP=6.67D-06 MaxDP=7.30D-05 DE= 1.09D-05 OVMax= 4.48D-04

 Cycle   7  Pass 1  IDiag  1:
 E= -78.9396536778149     Delta-E=        0.000000813991 Rises=F Damp=F
 DIIS: error= 1.93D-04 at cycle   2 NSaved=   2.
 NSaved= 2 IEnMin= 1 EnMin= -78.9396544918062     IErMin= 1 ErrMin= 5.52D-05
 ErrMax= 1.93D-04  0.00D+00 EMaxC= 1.00D-01 BMatC= 6.63D-07 BMatP= 5.46D-08
 IDIUse=3 WtCom= 4.19D-01 WtEn= 5.81D-01
 Coeff-Com:  0.777D+00 0.223D+00
 Coeff-En:   0.856D+00 0.144D+00
 Coeff:      0.823D+00 0.177D+00
 Gap=     0.115 Goal=   None    Shift=    0.000
 RMSDP=1.17D-05 MaxDP=1.27D-04 DE= 8.14D-07 OVMax= 2.75D-04

 Cycle   8  Pass 1  IDiag  1:
 E= -78.9396545276318     Delta-E=       -0.000000849817 Rises=F Damp=F
 DIIS: error= 3.98D-05 at cycle   3 NSaved=   3.
 NSaved= 3 IEnMin= 3 EnMin= -78.9396545276318     IErMin= 3 ErrMin= 3.98D-05
 ErrMax= 3.98D-05  0.00D+00 EMaxC= 1.00D-01 BMatC= 2.82D-08 BMatP= 5.46D-08
 IDIUse=1 WtCom= 1.00D+00 WtEn= 0.00D+00
 Coeff-Com:  0.229D+00-0.118D+00 0.889D+00
 Coeff:      0.229D+00-0.118D+00 0.889D+00
 Gap=     0.115 Goal=   None    Shift=    0.000
 RMSDP=3.15D-06 MaxDP=3.28D-05 DE=-8.50D-07 OVMax= 7.20D-05

 Cycle   9  Pass 1  IDiag  1:
 E= -78.9396545649720     Delta-E=       -0.000000037340 Rises=F Damp=F
 DIIS: error= 2.68D-06 at cycle   4 NSaved=   4.
 NSaved= 4 IEnMin= 4 EnMin= -78.9396545649720     IErMin= 4 ErrMin= 2.68D-06
 ErrMax= 2.68D-06  0.00D+00 EMaxC= 1.00D-01 BMatC= 2.85D-10 BMatP= 2.82D-08
 IDIUse=1 WtCom= 1.00D+00 WtEn= 0.00D+00
 Coeff-Com:  0.131D-01-0.161D+00 0.800D+00 0.348D+00
 Coeff:      0.131D-01-0.161D+00 0.800D+00 0.348D+00
 Gap=     0.115 Goal=   None    Shift=    0.000
 RMSDP=4.54D-07 MaxDP=5.74D-06 DE=-3.73D-08 OVMax= 1.08D-05

 Cycle  10  Pass 1  IDiag  1:
 E= -78.9396545654692     Delta-E=       -0.000000000497 Rises=F Damp=F
 DIIS: error= 9.40D-07 at cycle   5 NSaved=   5.
 NSaved= 5 IEnMin= 5 EnMin= -78.9396545654692     IErMin= 5 ErrMin= 9.40D-07
 ErrMax= 9.40D-07  0.00D+00 EMaxC= 1.00D-01 BMatC= 3.45D-11 BMatP= 2.85D-10
 IDIUse=1 WtCom= 1.00D+00 WtEn= 0.00D+00
 Coeff-Com: -0.421D-03-0.113D+00 0.546D+00 0.274D+00 0.293D+00
 Coeff:     -0.421D-03-0.113D+00 0.546D+00 0.274D+00 0.293D+00
 Gap=     0.115 Goal=   None    Shift=    0.000
 RMSDP=1.90D-07 MaxDP=2.65D-06 DE=-4.97D-10 OVMax= 5.75D-06

 Cycle  11  Pass 1  IDiag  1:
 E= -78.9396545655389     Delta-E=       -0.000000000070 Rises=F Damp=F
 DIIS: error= 1.11D-07 at cycle   6 NSaved=   6.
 NSaved= 6 IEnMin= 6 EnMin= -78.9396545655389     IErMin= 6 ErrMin= 1.11D-07
 ErrMax= 1.11D-07  0.00D+00 EMaxC= 1.00D-01 BMatC= 3.83D-13 BMatP= 3.45D-11
 IDIUse=1 WtCom= 1.00D+00 WtEn= 0.00D+00
 Coeff-Com: -0.602D-02-0.519D-02 0.168D-01 0.205D-01 0.971D-01 0.877D+00
 Coeff:     -0.602D-02-0.519D-02 0.168D-01 0.205D-01 0.971D-01 0.877D+00
 Gap=     0.115 Goal=   None    Shift=    0.000
 RMSDP=2.88D-08 MaxDP=2.62D-07 DE=-6.97D-11 OVMax= 7.52D-07

 Cycle  12  Pass 1  IDiag  1:
 E= -78.9396545655399     Delta-E=       -0.000000000001 Rises=F Damp=F
 DIIS: error= 2.86D-08 at cycle   7 NSaved=   7.
 NSaved= 7 IEnMin= 7 EnMin= -78.9396545655399     IErMin= 7 ErrMin= 2.86D-08
 ErrMax= 2.86D-08  0.00D+00 EMaxC= 1.00D-01 BMatC= 1.94D-14 BMatP= 3.83D-13
 IDIUse=1 WtCom= 1.00D+00 WtEn= 0.00D+00
 Coeff-Com: -0.122D-02 0.412D-02-0.217D-01-0.112D-01 0.139D-01 0.188D+00
 Coeff-Com:  0.829D+00
 Coeff:     -0.122D-02 0.412D-02-0.217D-01-0.112D-01 0.139D-01 0.188D+00
 Coeff:      0.829D+00
 Gap=     0.115 Goal=   None    Shift=    0.000
 RMSDP=9.74D-09 MaxDP=7.60D-08 DE=-1.01D-12 OVMax= 2.59D-07

 SCF Done:  E(RB3LYP) =  -78.9396545655     A.U. after   12 cycles
            NFock= 12  Conv=0.97D-08     -V/T= 2.0309
 KE= 7.657368944965D+01 PE=-2.324791643018D+02 EE= 5.112471178190D+01
 Leave Link  502 at Thu Mar 19 16:58:51 2026, MaxMem=   536870912 cpu:         1.0
 (Enter C:\G09W\l701.exe)
 Compute integral first derivatives.
 ... and contract with generalized density number  0.
 Leave Link  701 at Thu Mar 19 16:58:52 2026, MaxMem=   536870912 cpu:         1.0
 (Enter C:\G09W\l702.exe)
 L702 exits ... SP integral derivatives will be done elsewhere.
 Leave Link  702 at Thu Mar 19 16:58:52 2026, MaxMem=   536870912 cpu:         0.0
 (Enter C:\G09W\l703.exe)
 Compute integral first derivatives, UseDBF=F ICtDFT=           0.
 Integral derivatives from FoFJK, PRISM(SPDF).
 Calling FoFJK, ICntrl=      2127 FMM=F ISym2X=0 I1Cent= 0 IOpClX= 0 NMat=1 NMatS=1 NMatT=0.
 FoFJK:  IHMeth= 1 ICntrl=    2127 DoSepK=F KAlg= 0 I1Cent=   0 FoldK=F
 IRaf=         0 NMat=   1 IRICut=       1 DoRegI=T DoRafI=F ISym2E= 0.
 FoFCou: FMM=F IPFlag=           0 FMFlag=      100000 FMFlg1=         800
         NFxFlg=           0 DoJE=F BraDBF=F KetDBF=F FulRan=T
         wScrn=  0.000000 ICntrl=    2127 IOpCl=  0 I1Cent=           0 NGrid=           0
         NMat0=    1 NMatS0=      1 NMatT0=    0 NMatD0=    1 NMtDS0=    0 NMtDT0=    0
 Symmetry not used in FoFCou.
 Leave Link  703 at Thu Mar 19 16:58:52 2026, MaxMem=   536870912 cpu:         0.0
 (Enter C:\G09W\l716.exe)
 Dipole        =-1.27611920D-03-1.76853348D-04 3.86930730D-04
 ***** Axes restored to original set *****
 -------------------------------------------------------------------
 Center     Atomic                   Forces (Hartrees/Bohr)
 Number     Number              X              Y              Z
 -------------------------------------------------------------------
      1        6           0.019847557    0.002360217    0.000166760
      2        6          -0.019873892   -0.002368583   -0.000194204
      3        1           0.019637213   -0.024885999   -0.055237953
      4        1           0.008671887    0.062962650    0.004411868
      5        1           0.019601739   -0.032375570    0.051260038
      6        1          -0.019572502    0.032305648   -0.051173597
      7        1          -0.019642266    0.024866458    0.055188946
      8        1          -0.008669735   -0.062864821   -0.004421859
 -------------------------------------------------------------------
 Cartesian Forces:  Max     0.062962650 RMS     0.032350569
 Leave Link  716 at Thu Mar 19 16:58:52 2026, MaxMem=   536870912 cpu:         0.0
 (Enter C:\G09W\l103.exe)

 GradGradGradGradGradGradGradGradGradGradGradGradGradGradGradGradGradGrad
 Berny optimization.
 Using GEDIIS/GDIIS optimizer.
 FormGI is forming the generalized inverse of G from B-inverse, IUseBI=4.
 Internal  Forces:  Max     0.068238886 RMS     0.032242571
 Search for a local minimum.
 Step number   2 out of a maximum of   38
 All quantities printed in internal units (Hartrees-Bohrs-Radians)
 RMS Force = .32243D-01 SwitMx=.10000D-02 MixMth= 1
 Mixed Optimization -- RFO/linear search
 Update second derivatives using D2CorX and points    1    2
 DE= -4.94D-02 DEPred=-4.59D-02 R= 1.08D+00
 TightC=F SS=  1.41D+00  RLast= 3.00D-01 DXNew= 5.0454D-01 9.0000D-01
 Trust test= 1.08D+00 RLast= 3.00D-01 DXMaxT set to 5.05D-01
 ITU=  1  0
 Use linear search instead of GDIIS.
     Eigenvalues ---   -0.03786   0.00230   0.03734   0.03736   0.03739
     Eigenvalues ---    0.03742   0.03744   0.05173   0.06315   0.06316
     Eigenvalues ---    0.06317   0.06318   0.15899   0.16000   0.16000
     Eigenvalues ---    0.16000   0.16000   0.16000
 Eigenvalue     1 is  -3.79D-02 should be greater than     0.000000 Eigenvector:
                          R1        R4        R3        R2        R6
   1                   -0.39056  -0.37574  -0.37573  -0.37564  -0.37526
                          R7        R5        A1        A3        A2
   1                   -0.37518  -0.37513   0.01270   0.01268   0.01268
 RFO step:  Lambda=-1.90536245D-01 EMin=-3.78568372D-02
 Skip linear search -- no minimum in search direction.
 Maximum step size (   0.505) exceeded in Quadratic search.
    -- Step size scaled by   0.504
 Iteration  1 RMS(Cart)=  0.10769494 RMS(Int)=  0.00033506
 Iteration  2 RMS(Cart)=  0.00096793 RMS(Int)=  0.00003208
 Iteration  3 RMS(Cart)=  0.00000026 RMS(Int)=  0.00003207
 ITry= 1 IFail=0 DXMaxC= 2.03D-01 DCOld= 1.00D+10 DXMaxT= 5.05D-01 DXLimC= 3.00D+00 Rises=F
 Variable       Old X    -DE/DX   Delta X   Delta X   Delta X     New X
                                 (Linear)    (Quad)   (Total)
    R1        4.13084  -0.06824   0.00000  -0.20052  -0.20052   3.93032
    R2        3.83054  -0.06366   0.00000  -0.18873  -0.18873   3.64181
    R3        3.82964  -0.06369   0.00000  -0.18879  -0.18879   3.64085
    R4        3.82930  -0.06369   0.00000  -0.18881  -0.18881   3.64049
    R5        3.83286  -0.06358   0.00000  -0.18848  -0.18848   3.64438
    R6        3.83151  -0.06362   0.00000  -0.18858  -0.18858   3.64293
    R7        3.83250  -0.06359   0.00000  -0.18851  -0.18851   3.64399
    A1        1.85343   0.00382   0.00000   0.00879   0.00874   1.86217
    A2        1.85351   0.00381   0.00000   0.00878   0.00873   1.86224
    A3        1.85354   0.00381   0.00000   0.00878   0.00874   1.86228
    A4        1.96407  -0.00331   0.00000  -0.00764  -0.00769   1.95638
    A5        1.96412  -0.00332   0.00000  -0.00765  -0.00770   1.95642
    A6        1.96425  -0.00332   0.00000  -0.00765  -0.00770   1.95655
    A7        1.85359   0.00380   0.00000   0.00876   0.00871   1.86230
    A8        1.85369   0.00380   0.00000   0.00876   0.00872   1.86241
    A9        1.85361   0.00380   0.00000   0.00876   0.00871   1.86232
   A10        1.96405  -0.00331   0.00000  -0.00763  -0.00768   1.95637
   A11        1.96391  -0.00330   0.00000  -0.00761  -0.00767   1.95625
   A12        1.96411  -0.00331   0.00000  -0.00763  -0.00768   1.95642
    D1        1.04710   0.00000   0.00000   0.00001   0.00001   1.04711
    D2        3.14154   0.00000   0.00000   0.00000   0.00000   3.14155
    D3       -1.04713   0.00000   0.00000   0.00000   0.00000  -1.04713
    D4       -1.04717   0.00000   0.00000   0.00000   0.00000  -1.04718
    D5        1.04726   0.00000   0.00000  -0.00001  -0.00001   1.04726
    D6       -3.14141   0.00000   0.00000  -0.00001  -0.00001  -3.14142
    D7        3.14146   0.00000   0.00000   0.00001   0.00001   3.14147
    D8       -1.04729   0.00000   0.00000   0.00000   0.00000  -1.04728
    D9        1.04722   0.00000   0.00000   0.00000   0.00000   1.04722
         Item               Value     Threshold  Converged?
 Maximum Force            0.068239     0.000450     NO 
 RMS     Force            0.032243     0.000300     NO 
 Maximum Displacement     0.202967     0.001800     NO 
 RMS     Displacement     0.108065     0.001200     NO 
 Predicted change in Energy=-9.088037D-02
 Lowest energy point so far.  Saving SCF results.
 GradGradGradGradGradGradGradGradGradGradGradGradGradGradGradGradGradGrad

 Leave Link  103 at Thu Mar 19 16:58:52 2026, MaxMem=   536870912 cpu:         0.0
 (Enter C:\G09W\l202.exe)
                          Input orientation:                          
 ---------------------------------------------------------------------
 Center     Atomic      Atomic             Coordinates (Angstroms)
 Number     Number       Type             X           Y           Z
 ---------------------------------------------------------------------
      1          6           0       -1.032824   -0.122891   -0.009342
      2          6           0        1.032374    0.122750    0.008881
      3          1           0       -1.692612    0.614046    1.644609
      4          1           0       -1.363980   -2.016217   -0.142159
      5          1           0       -1.691052    0.837508   -1.544147
      6          1           0        1.691320   -0.838473    1.545448
      7          1           0        1.692806   -0.614382   -1.645420
      8          1           0        1.363968    2.017660    0.142130
 ---------------------------------------------------------------------
                    Distance matrix (angstroms):
                    1          2          3          4          5
     1  C    0.000000
     2  C    2.079835   0.000000
     3  H    1.927162   3.215980   0.000000
     4  H    1.926652   3.215665   3.196689   0.000000
     5  H    1.926462   3.215559   3.196577   3.196294   0.000000
     6  H    3.217202   1.928522   3.683835   3.683742   4.878007
     7  H    3.216733   1.927756   4.877948   3.683595   3.683577
     8  H    3.217066   1.928314   3.683783   4.877980   3.683672
                    6          7          8
     6  H    0.000000
     7  H    3.198727   0.000000
     8  H    3.199055   3.198612   0.000000
 Stoichiometry    C2H6
 Framework group  C1[X(C2H6)]
 Deg. of freedom    18
 Full point group                 C1      NOp   1
 RotChk:  IX=0 Diff= 1.94D-01
 Largest Abelian subgroup         C1      NOp   1
 Largest concise Abelian subgroup C1      NOp   1
                         Standard orientation:                         
 ---------------------------------------------------------------------
 Center     Atomic      Atomic             Coordinates (Angstroms)
 Number     Number       Type             X           Y           Z
 ---------------------------------------------------------------------
      1          6           0       -1.040021   -0.000025    0.000093
      2          6           0        1.039813   -0.000034    0.000105
      3          1           0       -1.593627    0.047037   -1.845241
      4          1           0       -1.593622    1.574204    0.963065
      5          1           0       -1.593648   -1.621051    0.881587
      6          1           0        1.594071    1.622603   -0.882531
      7          1           0        1.594033   -0.047020    1.845878
      8          1           0        1.594041   -1.575416   -0.963948
 ---------------------------------------------------------------------
 Rotational constants (GHZ):     24.5209732      9.7902885      9.7902505
 Leave Link  202 at Thu Mar 19 16:58:53 2026, MaxMem=   536870912 cpu:         0.0
 (Enter C:\G09W\l301.exe)
 Standard basis: 6-31G(d) (6D, 7F)
 Ernie: Thresh=  0.10000D-02 Tol=  0.10000D-05 Strict=F.
 There are    42 symmetry adapted cartesian basis functions of A   symmetry.
 There are    42 symmetry adapted basis functions of A   symmetry.
    42 basis functions,    80 primitive gaussians,    42 cartesian basis functions
     9 alpha electrons        9 beta electrons
       nuclear repulsion energy        27.1463972080 Hartrees.
 IExCor=  402 DFT=T Ex+Corr=B3LYP ExCW=0 ScaHFX=  0.200000
 ScaDFX=  0.800000  0.720000  1.000000  0.810000 ScalE2=  1.000000  1.000000
 IRadAn=      0 IRanWt=     -1 IRanGd=            0 ICorTp=0 IEmpDi=  4
 NAtoms=    8 NActive=    8 NUniq=    8 SFac= 1.00D+00 NAtFMM=   60 NAOKFM=F Big=F
 Integral buffers will be    131072 words long.
 Raffenetti 2 integral format.
 Two-electron integral symmetry is turned on.
 Leave Link  301 at Thu Mar 19 16:58:53 2026, MaxMem=   536870912 cpu:         0.0
 (Enter C:\G09W\l302.exe)
 NPDir=0 NMtPBC=     1 NCelOv=     1 NCel=       1 NClECP=     1 NCelD=      1
         NCelK=      1 NCelE2=     1 NClLst=     1 CellRange=     0.0.
 One-electron integrals computed using PRISM.
 NBasis=    42 RedAO= T EigKep=  4.20D-02  NBF=    42
 NBsUse=    42 1.00D-06 EigRej= -1.00D+00 NBFU=    42
 Precomputing XC quadrature grid using
 IXCGrd= 4 IRadAn=           0 IRanWt=          -1 IRanGd=           0 AccXCQ= 0.00D+00.
 Generated NRdTot=       0 NPtTot=           0 NUsed=           0 NTot=          32
 NSgBfM=    42    42    42    42    42 MxSgAt=     8 MxSgA2=     8.
 Leave Link  302 at Thu Mar 19 16:58:53 2026, MaxMem=   536870912 cpu:         0.0
 (Enter C:\G09W\l303.exe)
 DipDrv:  MaxL=1.
 Leave Link  303 at Thu Mar 19 16:58:54 2026, MaxMem=   536870912 cpu:         0.0
 (Enter C:\G09W\l401.exe)
 Initial guess from the checkpoint file:  "ethane_xtb.chk"
 B after Tr=     0.000000    0.000000    0.000000
         Rot=    0.997637    0.068705   -0.000002    0.000001 Ang=   7.88 deg.
 Guess basis will be translated and rotated to current coordinates.
 JPrj=2 DoOrth=T DoCkMO=T.
 Generating alternative initial guess.
 ExpMin= 1.61D-01 ExpMax= 3.05D+03 ExpMxC= 4.57D+02 IAcc=1 IRadAn=         1 AccDes= 0.00D+00
 Harris functional with IExCor=  402 and IRadAn=       1 diagonalized for initial guess.
 HarFok:  IExCor=  402 AccDes= 0.00D+00 IRadAn=         1 IDoV= 1 UseB2=F ITyADJ=14
 ICtDFT=  3500011 ScaDFX=  1.000000  1.000000  1.000000  1.000000
 FoFCou: FMM=F IPFlag=           0 FMFlag=      100000 FMFlg1=           0
         NFxFlg=           0 DoJE=T BraDBF=F KetDBF=T FulRan=T
         wScrn=  0.000000 ICntrl=     500 IOpCl=  0 I1Cent=   200000004 NGrid=           0
         NMat0=    1 NMatS0=      1 NMatT0=    0 NMatD0=    1 NMtDS0=    0 NMtDT0=    0
 Petite list used in FoFCou.
 Harris En= -79.0324589753655    
 Leave Link  401 at Thu Mar 19 16:58:54 2026, MaxMem=   536870912 cpu:         0.0
 (Enter C:\G09W\l502.exe)
 Closed shell SCF:
 Using DIIS extrapolation, IDIIS=  1040.
 Integral symmetry usage will be decided dynamically.
 Keep R1 ints in memory in canonical form, NReq=1293450.
 IVT=       24424 IEndB=       24424 NGot=   536870912 MDV=   536438333
 LenX=   536438333 LenY=   536436128
 Requested convergence on RMS density matrix=1.00D-08 within 128 cycles.
 Requested convergence on MAX density matrix=1.00D-06.
 Requested convergence on             energy=1.00D-06.
 No special actions if energy rises.
 FoFCou: FMM=F IPFlag=           0 FMFlag=           0 FMFlg1=           0
         NFxFlg=           0 DoJE=F BraDBF=F KetDBF=F FulRan=T
         wScrn=  0.000000 ICntrl=     600 IOpCl=  0 I1Cent=           0 NGrid=           0
         NMat0=    1 NMatS0=    903 NMatT0=    0 NMatD0=    1 NMtDS0=    0 NMtDT0=    0
 Symmetry not used in FoFCou.
 Integral accuracy reduced to 1.0D-05 until final iterations.

 Cycle   1  Pass 0  IDiag  1:
 E= -79.0283769314375    
 DIIS: error= 5.07D-03 at cycle   1 NSaved=   1.
 NSaved= 1 IEnMin= 1 EnMin= -79.0283769314375     IErMin= 1 ErrMin= 5.07D-03
 ErrMax= 5.07D-03  0.00D+00 EMaxC= 1.00D-01 BMatC= 8.93D-04 BMatP= 8.93D-04
 IDIUse=3 WtCom= 9.49D-01 WtEn= 5.07D-02
 Coeff-Com:  0.100D+01
 Coeff-En:   0.100D+01
 Coeff:      0.100D+01
 Gap=     3.025 Goal=   None    Shift=    0.000
 GapD=    3.025 DampG=2.000 DampE=1.000 DampFc=2.0000 IDamp=-1.
 RMSDP=1.66D-03 MaxDP=1.35D-02              OVMax= 2.60D-02

 Cycle   2  Pass 0  IDiag  1:
 E= -79.0283240428222     Delta-E=        0.000052888615 Rises=F Damp=F
 DIIS: error= 7.35D-03 at cycle   2 NSaved=   2.
 NSaved= 2 IEnMin= 1 EnMin= -79.0283769314375     IErMin= 1 ErrMin= 5.07D-03
 ErrMax= 7.35D-03  0.00D+00 EMaxC= 1.00D-01 BMatC= 1.70D-03 BMatP= 8.93D-04
 IDIUse=3 WtCom= 1.04D-01 WtEn= 8.96D-01
 Coeff-Com:  0.616D+00 0.384D+00
 Coeff-En:   0.509D+00 0.491D+00
 Coeff:      0.520D+00 0.480D+00
 Gap=     0.136 Goal=   None    Shift=    0.000
 RMSDP=1.70D-03 MaxDP=1.34D-02 DE= 5.29D-05 OVMax= 3.71D-02

 Cycle   3  Pass 0  IDiag  1:
 E= -79.0277172707846     Delta-E=        0.000606772038 Rises=F Damp=F
 DIIS: error= 8.29D-03 at cycle   3 NSaved=   3.
 NSaved= 3 IEnMin= 1 EnMin= -79.0283769314375     IErMin= 1 ErrMin= 5.07D-03
 ErrMax= 8.29D-03  0.00D+00 EMaxC= 1.00D-01 BMatC= 2.01D-03 BMatP= 8.93D-04
 IDIUse=3 WtCom= 9.90D-02 WtEn= 9.01D-01
 Coeff-Com: -0.317D-01 0.533D+00 0.499D+00
 Coeff-En:   0.000D+00 0.537D+00 0.463D+00
 Coeff:     -0.313D-02 0.536D+00 0.467D+00
 Gap=     0.138 Goal=   None    Shift=    0.000
 RMSDP=8.83D-04 MaxDP=7.09D-03 DE= 6.07D-04 OVMax= 2.04D-02

 Cycle   4  Pass 0  IDiag  1:
 E= -79.0307163134681     Delta-E=       -0.002999042684 Rises=F Damp=F
 DIIS: error= 3.06D-04 at cycle   4 NSaved=   4.
 NSaved= 4 IEnMin= 4 EnMin= -79.0307163134681     IErMin= 4 ErrMin= 3.06D-04
 ErrMax= 3.06D-04  0.00D+00 EMaxC= 1.00D-01 BMatC= 3.02D-06 BMatP= 8.93D-04
 IDIUse=3 WtCom= 9.97D-01 WtEn= 3.06D-03
 Coeff-Com: -0.111D-01 0.188D-01-0.178D-01 0.101D+01
 Coeff-En:   0.000D+00 0.000D+00 0.000D+00 0.100D+01
 Coeff:     -0.110D-01 0.188D-01-0.177D-01 0.101D+01
 Gap=     0.138 Goal=   None    Shift=    0.000
 RMSDP=4.08D-05 MaxDP=3.80D-04 DE=-3.00D-03 OVMax= 1.01D-03

 Cycle   5  Pass 0  IDiag  1:
 E= -79.0307208392566     Delta-E=       -0.000004525788 Rises=F Damp=F
 DIIS: error= 4.87D-05 at cycle   5 NSaved=   5.
 NSaved= 5 IEnMin= 5 EnMin= -79.0307208392566     IErMin= 5 ErrMin= 4.87D-05
 ErrMax= 4.87D-05  0.00D+00 EMaxC= 1.00D-01 BMatC= 4.99D-08 BMatP= 3.02D-06
 IDIUse=1 WtCom= 1.00D+00 WtEn= 0.00D+00
 Coeff-Com: -0.391D-02 0.211D-02-0.115D-01 0.361D+00 0.652D+00
 Coeff:     -0.391D-02 0.211D-02-0.115D-01 0.361D+00 0.652D+00
 Gap=     0.138 Goal=   None    Shift=    0.000
 RMSDP=1.02D-05 MaxDP=1.14D-04 DE=-4.53D-06 OVMax= 2.24D-04

 Cycle   6  Pass 0  IDiag  1:
 E= -79.0307207479984     Delta-E=        0.000000091258 Rises=F Damp=F
 DIIS: error= 8.14D-05 at cycle   6 NSaved=   6.
 NSaved= 6 IEnMin= 5 EnMin= -79.0307208392566     IErMin= 5 ErrMin= 4.87D-05
 ErrMax= 8.14D-05  0.00D+00 EMaxC= 1.00D-01 BMatC= 1.24D-07 BMatP= 4.99D-08
 IDIUse=1 WtCom= 1.00D+00 WtEn= 0.00D+00
 Coeff-Com: -0.224D-03-0.338D-02-0.478D-02 0.169D-01 0.619D+00 0.372D+00
 Coeff:     -0.224D-03-0.338D-02-0.478D-02 0.169D-01 0.619D+00 0.372D+00
 Gap=     0.138 Goal=   None    Shift=    0.000
 RMSDP=6.44D-06 MaxDP=7.36D-05 DE= 9.13D-08 OVMax= 1.44D-04

 Initial convergence to 1.0D-05 achieved.  Increase integral accuracy.
 Cycle   7  Pass 1  IDiag  1:
 E= -79.0307316796157     Delta-E=       -0.000010931617 Rises=F Damp=F
 DIIS: error= 3.68D-06 at cycle   1 NSaved=   1.
 NSaved= 1 IEnMin= 1 EnMin= -79.0307316796157     IErMin= 1 ErrMin= 3.68D-06
 ErrMax= 3.68D-06  0.00D+00 EMaxC= 1.00D-01 BMatC= 4.93D-10 BMatP= 4.93D-10
 IDIUse=1 WtCom= 1.00D+00 WtEn= 0.00D+00
 Coeff-Com:  0.100D+01
 Coeff:      0.100D+01
 Gap=     0.138 Goal=   None    Shift=    0.000
 RMSDP=6.44D-06 MaxDP=7.36D-05 DE=-1.09D-05 OVMax= 3.14D-05

 Cycle   8  Pass 1  IDiag  1:
 E= -79.0307316795096     Delta-E=        0.000000000106 Rises=F Damp=F
 DIIS: error= 3.75D-06 at cycle   2 NSaved=   2.
 NSaved= 2 IEnMin= 1 EnMin= -79.0307316796157     IErMin= 1 ErrMin= 3.68D-06
 ErrMax= 3.75D-06  0.00D+00 EMaxC= 1.00D-01 BMatC= 5.25D-10 BMatP= 4.93D-10
 IDIUse=1 WtCom= 1.00D+00 WtEn= 0.00D+00
 Coeff-Com:  0.511D+00 0.489D+00
 Coeff:      0.511D+00 0.489D+00
 Gap=     0.138 Goal=   None    Shift=    0.000
 RMSDP=1.05D-06 MaxDP=1.58D-05 DE= 1.06D-10 OVMax= 2.96D-05

 Cycle   9  Pass 1  IDiag  1:
 E= -79.0307316799818     Delta-E=       -0.000000000472 Rises=F Damp=F
 DIIS: error= 3.32D-06 at cycle   3 NSaved=   3.
 NSaved= 3 IEnMin= 3 EnMin= -79.0307316799818     IErMin= 3 ErrMin= 3.32D-06
 ErrMax= 3.32D-06  0.00D+00 EMaxC= 1.00D-01 BMatC= 3.87D-10 BMatP= 4.93D-10
 IDIUse=1 WtCom= 1.00D+00 WtEn= 0.00D+00
 Coeff-Com:  0.108D+00 0.434D+00 0.458D+00
 Coeff:      0.108D+00 0.434D+00 0.458D+00
 Gap=     0.138 Goal=   None    Shift=    0.000
 RMSDP=4.70D-07 MaxDP=5.15D-06 DE=-4.72D-10 OVMax= 1.06D-05

 Cycle  10  Pass 1  IDiag  1:
 E= -79.0307316804205     Delta-E=       -0.000000000439 Rises=F Damp=F
 DIIS: error= 1.24D-06 at cycle   4 NSaved=   4.
 NSaved= 4 IEnMin= 4 EnMin= -79.0307316804205     IErMin= 4 ErrMin= 1.24D-06
 ErrMax= 1.24D-06  0.00D+00 EMaxC= 1.00D-01 BMatC= 5.95D-11 BMatP= 3.87D-10
 IDIUse=1 WtCom= 1.00D+00 WtEn= 0.00D+00
 Coeff-Com:  0.819D-02 0.250D+00 0.341D+00 0.401D+00
 Coeff:      0.819D-02 0.250D+00 0.341D+00 0.401D+00
 Gap=     0.138 Goal=   None    Shift=    0.000
 RMSDP=2.74D-07 MaxDP=3.21D-06 DE=-4.39D-10 OVMax= 7.77D-06

 Cycle  11  Pass 1  IDiag  1:
 E= -79.0307316805456     Delta-E=       -0.000000000125 Rises=F Damp=F
 DIIS: error= 2.28D-07 at cycle   5 NSaved=   5.
 NSaved= 5 IEnMin= 5 EnMin= -79.0307316805456     IErMin= 5 ErrMin= 2.28D-07
 ErrMax= 2.28D-07  0.00D+00 EMaxC= 1.00D-01 BMatC= 2.50D-12 BMatP= 5.95D-11
 IDIUse=1 WtCom= 1.00D+00 WtEn= 0.00D+00
 Coeff-Com: -0.530D-02 0.100D+00 0.152D+00 0.227D+00 0.525D+00
 Coeff:     -0.530D-02 0.100D+00 0.152D+00 0.227D+00 0.525D+00
 Gap=     0.138 Goal=   None    Shift=    0.000
 RMSDP=5.89D-08 MaxDP=7.47D-07 DE=-1.25D-10 OVMax= 1.45D-06

 Cycle  12  Pass 1  IDiag  1:
 E= -79.0307316805469     Delta-E=       -0.000000000001 Rises=F Damp=F
 DIIS: error= 2.39D-07 at cycle   6 NSaved=   6.
 NSaved= 6 IEnMin= 6 EnMin= -79.0307316805469     IErMin= 5 ErrMin= 2.28D-07
 ErrMax= 2.39D-07  0.00D+00 EMaxC= 1.00D-01 BMatC= 2.40D-12 BMatP= 2.50D-12
 IDIUse=1 WtCom= 1.00D+00 WtEn= 0.00D+00
 Coeff-Com: -0.565D-02 0.325D-01 0.588D-01 0.110D+00 0.469D+00 0.335D+00
 Coeff:     -0.565D-02 0.325D-01 0.588D-01 0.110D+00 0.469D+00 0.335D+00
 Gap=     0.138 Goal=   None    Shift=    0.000
 RMSDP=3.18D-08 MaxDP=3.96D-07 DE=-1.25D-12 OVMax= 5.99D-07

 Cycle  13  Pass 1  IDiag  1:
 E= -79.0307316805507     Delta-E=       -0.000000000004 Rises=F Damp=F
 DIIS: error= 1.90D-08 at cycle   7 NSaved=   7.
 NSaved= 7 IEnMin= 7 EnMin= -79.0307316805507     IErMin= 7 ErrMin= 1.90D-08
 ErrMax= 1.90D-08  0.00D+00 EMaxC= 1.00D-01 BMatC= 8.26D-15 BMatP= 2.40D-12
 IDIUse=1 WtCom= 1.00D+00 WtEn= 0.00D+00
 Coeff-Com: -0.163D-02 0.286D-02 0.906D-02 0.187D-01 0.129D+00 0.855D-01
 Coeff-Com:  0.757D+00
 Coeff:     -0.163D-02 0.286D-02 0.906D-02 0.187D-01 0.129D+00 0.855D-01
 Coeff:      0.757D+00
 Gap=     0.138 Goal=   None    Shift=    0.000
 RMSDP=5.02D-09 MaxDP=5.66D-08 DE=-3.81D-12 OVMax= 1.42D-07

 SCF Done:  E(RB3LYP) =  -79.0307316806     A.U. after   13 cycles
            NFock= 13  Conv=0.50D-08     -V/T= 2.0325
 KE= 7.654343187015D+01 PE=-2.351823240078D+02 EE= 5.246176324904D+01
 Leave Link  502 at Thu Mar 19 16:58:56 2026, MaxMem=   536870912 cpu:         2.0
 (Enter C:\G09W\l701.exe)
 Compute integral first derivatives.
 ... and contract with generalized density number  0.
 Leave Link  701 at Thu Mar 19 16:58:57 2026, MaxMem=   536870912 cpu:         0.0
 (Enter C:\G09W\l702.exe)
 L702 exits ... SP integral derivatives will be done elsewhere.
 Leave Link  702 at Thu Mar 19 16:58:57 2026, MaxMem=   536870912 cpu:         0.0
 (Enter C:\G09W\l703.exe)
 Compute integral first derivatives, UseDBF=F ICtDFT=           0.
 Integral derivatives from FoFJK, PRISM(SPDF).
 Calling FoFJK, ICntrl=      2127 FMM=F ISym2X=0 I1Cent= 0 IOpClX= 0 NMat=1 NMatS=1 NMatT=0.
 FoFJK:  IHMeth= 1 ICntrl=    2127 DoSepK=F KAlg= 0 I1Cent=   0 FoldK=F
 IRaf=         0 NMat=   1 IRICut=       1 DoRegI=T DoRafI=F ISym2E= 0.
 FoFCou: FMM=F IPFlag=           0 FMFlag=      100000 FMFlg1=         800
         NFxFlg=           0 DoJE=F BraDBF=F KetDBF=F FulRan=T
         wScrn=  0.000000 ICntrl=    2127 IOpCl=  0 I1Cent=           0 NGrid=           0
         NMat0=    1 NMatS0=      1 NMatT0=    0 NMatD0=    1 NMtDS0=    0 NMtDT0=    0
 Symmetry not used in FoFCou.
 Leave Link  703 at Thu Mar 19 16:58:58 2026, MaxMem=   536870912 cpu:         1.0
 (Enter C:\G09W\l716.exe)
 Dipole        =-1.45947728D-03-1.51457454D-04 5.05261448D-04
 ***** Axes restored to original set *****
 -------------------------------------------------------------------
 Center     Atomic                   Forces (Hartrees/Bohr)
 Number     Number              X              Y              Z
 -------------------------------------------------------------------
      1        6           0.020618207    0.002449554    0.000169936
      2        6          -0.020662873   -0.002460627   -0.000200395
      3        1           0.022565928   -0.027631630   -0.061509089
      4        1           0.010353931    0.070200636    0.004920526
      5        1           0.022526575   -0.035971288    0.057090617
      6        1          -0.022488809    0.035893688   -0.056992186
      7        1          -0.022566237    0.027608249    0.061450770
      8        1          -0.010346721   -0.070088582   -0.004930180
 -------------------------------------------------------------------
 Cartesian Forces:  Max     0.070200636 RMS     0.036040590
 Leave Link  716 at Thu Mar 19 16:58:58 2026, MaxMem=   536870912 cpu:         0.0
 (Enter C:\G09W\l103.exe)

 GradGradGradGradGradGradGradGradGradGradGradGradGradGradGradGradGradGrad
 Berny optimization.
 Using GEDIIS/GDIIS optimizer.
 FormGI is forming the generalized inverse of G from B-inverse, IUseBI=4.
 Internal  Forces:  Max     0.076603748 RMS     0.036013666
 Search for a local minimum.
 Step number   3 out of a maximum of   38
 All quantities printed in internal units (Hartrees-Bohrs-Radians)
 RMS Force = .36014D-01 SwitMx=.10000D-02 MixMth= 1
 Mixed Optimization -- RFO/linear search
 Update second derivatives using D2CorX and points    2    3
 DE= -9.11D-02 DEPred=-9.09D-02 R= 1.00D+00
 TightC=F SS=  1.41D+00  RLast= 5.05D-01 DXNew= 8.4853D-01 1.5136D+00
 Trust test= 1.00D+00 RLast= 5.05D-01 DXMaxT set to 8.49D-01
 ITU=  1  1  0
 Use linear search instead of GDIIS.
     Eigenvalues ---   -0.03960   0.00230   0.03734   0.03736   0.03739
     Eigenvalues ---    0.03742   0.03744   0.05173   0.06225   0.06226
     Eigenvalues ---    0.06226   0.06227   0.15912   0.16000   0.16000
     Eigenvalues ---    0.16000   0.16000   0.16000
 Eigenvalue     1 is  -3.96D-02 should be greater than     0.000000 Eigenvector:
                          R1        R4        R3        R2        R6
   1                    0.40642   0.37286   0.37284   0.37271   0.37228
                          R7        R5        A2        A9        A3
   1                    0.37219   0.37213  -0.01455  -0.01455  -0.01454
 RFO step:  Lambda=-2.11372497D-01 EMin=-3.95968282D-02
 Skip linear search -- no minimum in search direction.
 Maximum step size (   0.849) exceeded in Quadratic search.
    -- Step size scaled by   0.848
 Iteration  1 RMS(Cart)=  0.11091624 RMS(Int)=  0.06037878
 Iteration  2 RMS(Cart)=  0.07446561 RMS(Int)=  0.00009007
 Iteration  3 RMS(Cart)=  0.00005271 RMS(Int)=  0.00008744
 Iteration  4 RMS(Cart)=  0.00000001 RMS(Int)=  0.00008744
 ITry= 1 IFail=0 DXMaxC= 3.40D-01 DCOld= 1.00D+10 DXMaxT= 8.49D-01 DXLimC= 3.00D+00 Rises=F
 Variable       Old X    -DE/DX   Delta X   Delta X   Delta X     New X
                                 (Linear)    (Quad)   (Total)
    R1        3.93032  -0.07660   0.00000  -0.34224  -0.34224   3.58807
    R2        3.64181  -0.07108   0.00000  -0.31651  -0.31651   3.32530
    R3        3.64085  -0.07111   0.00000  -0.31662  -0.31662   3.32423
    R4        3.64049  -0.07111   0.00000  -0.31665  -0.31665   3.32383
    R5        3.64438  -0.07098   0.00000  -0.31606  -0.31606   3.32832
    R6        3.64293  -0.07102   0.00000  -0.31622  -0.31622   3.32671
    R7        3.64399  -0.07099   0.00000  -0.31611  -0.31611   3.32787
    A1        1.86217   0.00385   0.00000   0.01480   0.01467   1.87685
    A2        1.86224   0.00385   0.00000   0.01481   0.01468   1.87692
    A3        1.86228   0.00385   0.00000   0.01480   0.01467   1.87695
    A4        1.95638  -0.00343   0.00000  -0.01318  -0.01332   1.94306
    A5        1.95642  -0.00343   0.00000  -0.01319  -0.01333   1.94309
    A6        1.95655  -0.00343   0.00000  -0.01320  -0.01334   1.94321
    A7        1.86230   0.00384   0.00000   0.01478   0.01465   1.87695
    A8        1.86241   0.00384   0.00000   0.01477   0.01464   1.87705
    A9        1.86232   0.00384   0.00000   0.01478   0.01465   1.87698
   A10        1.95637  -0.00342   0.00000  -0.01317  -0.01331   1.94306
   A11        1.95625  -0.00342   0.00000  -0.01316  -0.01330   1.94295
   A12        1.95642  -0.00342   0.00000  -0.01318  -0.01332   1.94311
    D1        1.04711   0.00000   0.00000   0.00001   0.00001   1.04712
    D2        3.14155   0.00000   0.00000   0.00000   0.00000   3.14155
    D3       -1.04713   0.00000   0.00000  -0.00001  -0.00001  -1.04714
    D4       -1.04718   0.00000   0.00000   0.00000   0.00000  -1.04717
    D5        1.04726   0.00000   0.00000   0.00000   0.00000   1.04725
    D6       -3.14142   0.00000   0.00000  -0.00001  -0.00001  -3.14143
    D7        3.14147   0.00000   0.00000   0.00001   0.00001   3.14148
    D8       -1.04728   0.00000   0.00000   0.00001   0.00001  -1.04728
    D9        1.04722   0.00000   0.00000   0.00000   0.00000   1.04722
         Item               Value     Threshold  Converged?
 Maximum Force            0.076604     0.000450     NO 
 RMS     Force            0.036014     0.000300     NO 
 Maximum Displacement     0.340063     0.001800     NO 
 RMS     Displacement     0.183362     0.001200     NO 
 Predicted change in Energy=-1.759423D-01
 Lowest energy point so far.  Saving SCF results.
 GradGradGradGradGradGradGradGradGradGradGradGradGradGradGradGradGradGrad

 Leave Link  103 at Thu Mar 19 16:58:58 2026, MaxMem=   536870912 cpu:         0.0
 (Enter C:\G09W\l202.exe)
[...]
 IDIUse=1 WtCom= 1.00D+00 WtEn= 0.00D+00
 Coeff-Com: -0.915D-03 0.189D-02 0.118D-01 0.102D+00 0.885D+00
 Coeff:     -0.915D-03 0.189D-02 0.118D-01 0.102D+00 0.885D+00
 Gap=     0.445 Goal=   None    Shift=    0.000
 RMSDP=1.31D-07 MaxDP=1.32D-06 DE=-4.05D-09 OVMax= 1.61D-06

 Cycle   6  Pass 1  IDiag  1:
 E= -79.8304180878133     Delta-E=       -0.000000000012 Rises=F Damp=F
 DIIS: error= 2.56D-07 at cycle   6 NSaved=   6.
 NSaved= 6 IEnMin= 6 EnMin= -79.8304180878133     IErMin= 6 ErrMin= 2.56D-07
 ErrMax= 2.56D-07  0.00D+00 EMaxC= 1.00D-01 BMatC= 3.75D-12 BMatP= 1.45D-11
 IDIUse=1 WtCom= 1.00D+00 WtEn= 0.00D+00
 Coeff-Com: -0.278D-03-0.658D-04 0.137D-02 0.263D-01 0.402D+00 0.570D+00
 Coeff:     -0.278D-03-0.658D-04 0.137D-02 0.263D-01 0.402D+00 0.570D+00
 Gap=     0.445 Goal=   None    Shift=    0.000
 RMSDP=4.30D-08 MaxDP=5.22D-07 DE=-1.24D-11 OVMax= 6.37D-07

 Cycle   7  Pass 1  IDiag  1:
 E= -79.8304180878180     Delta-E=       -0.000000000005 Rises=F Damp=F
 DIIS: error= 5.44D-08 at cycle   7 NSaved=   7.
 NSaved= 7 IEnMin= 7 EnMin= -79.8304180878180     IErMin= 7 ErrMin= 5.44D-08
 ErrMax= 5.44D-08  0.00D+00 EMaxC= 1.00D-01 BMatC= 1.57D-13 BMatP= 3.75D-12
 IDIUse=1 WtCom= 1.00D+00 WtEn= 0.00D+00
 Coeff-Com: -0.575D-04-0.175D-03-0.199D-03 0.457D-02 0.114D+00 0.233D+00
 Coeff-Com:  0.650D+00
 Coeff:     -0.575D-04-0.175D-03-0.199D-03 0.457D-02 0.114D+00 0.233D+00
 Coeff:      0.650D+00
 Gap=     0.445 Goal=   None    Shift=    0.000
 RMSDP=9.46D-09 MaxDP=9.77D-08 DE=-4.77D-12 OVMax= 1.39D-07

 SCF Done:  E(RB3LYP) =  -79.8304180878     A.U. after    7 cycles
            NFock=  7  Conv=0.95D-08     -V/T= 2.0108
 KE= 7.897487149479D+01 PE=-2.680238588266D+02 EE= 6.710957570899D+01
 Leave Link  502 at Thu Mar 19 16:59:56 2026, MaxMem=   536870912 cpu:         1.0
 (Enter C:\G09W\l701.exe)
 Compute integral first derivatives.
 ... and contract with generalized density number  0.
 Leave Link  701 at Thu Mar 19 16:59:57 2026, MaxMem=   536870912 cpu:         0.0
 (Enter C:\G09W\l702.exe)
 L702 exits ... SP integral derivatives will be done elsewhere.
 Leave Link  702 at Thu Mar 19 16:59:57 2026, MaxMem=   536870912 cpu:         0.0
 (Enter C:\G09W\l703.exe)
 Compute integral first derivatives, UseDBF=F ICtDFT=           0.
 Integral derivatives from FoFJK, PRISM(SPDF).
 Calling FoFJK, ICntrl=      2127 FMM=F ISym2X=0 I1Cent= 0 IOpClX= 0 NMat=1 NMatS=1 NMatT=0.
 FoFJK:  IHMeth= 1 ICntrl=    2127 DoSepK=F KAlg= 0 I1Cent=   0 FoldK=F
 IRaf=         0 NMat=   1 IRICut=       1 DoRegI=T DoRafI=F ISym2E= 0.
 FoFCou: FMM=F IPFlag=           0 FMFlag=      100000 FMFlg1=         800
         NFxFlg=           0 DoJE=F BraDBF=F KetDBF=F FulRan=T
         wScrn=  0.000000 ICntrl=    2127 IOpCl=  0 I1Cent=           0 NGrid=           0
         NMat0=    1 NMatS0=      1 NMatT0=    0 NMatD0=    1 NMtDS0=    0 NMtDT0=    0
 Symmetry not used in FoFCou.
 Leave Link  703 at Thu Mar 19 16:59:58 2026, MaxMem=   536870912 cpu:         1.0
 (Enter C:\G09W\l716.exe)
 Dipole        =-3.52017859D-06 3.00694659D-05 6.43223447D-07
 ***** Axes restored to original set *****
 -------------------------------------------------------------------
 Center     Atomic                   Forces (Hartrees/Bohr)
 Number     Number              X              Y              Z
 -------------------------------------------------------------------
      1        6          -0.000010767   -0.000025671    0.000001743
      2        6           0.000016364    0.000007288   -0.000055463
      3        1           0.000000744    0.000008437   -0.000003202
      4        1           0.000000544    0.000017589   -0.000001888
      5        1           0.000006070   -0.000000268    0.000007986
      6        1           0.000003353   -0.000011002    0.000007571
      7        1          -0.000019448    0.000008501    0.000042085
      8        1           0.000003139   -0.000004875    0.000001169
 -------------------------------------------------------------------
 Cartesian Forces:  Max     0.000055463 RMS     0.000017221
 Leave Link  716 at Thu Mar 19 16:59:58 2026, MaxMem=   536870912 cpu:         0.0
 (Enter C:\G09W\l103.exe)

 GradGradGradGradGradGradGradGradGradGradGradGradGradGradGradGradGradGrad
 Berny optimization.
 Using GEDIIS/GDIIS optimizer.
 FormGI is forming the generalized inverse of G from B-inverse, IUseBI=4.
 Internal  Forces:  Max     0.000047010 RMS     0.000010120
 Search for a local minimum.
 Step number  16 out of a maximum of   38
 All quantities printed in internal units (Hartrees-Bohrs-Radians)
 RMS Force = .10120D-04 SwitMx=.10000D-02 MixMth= 2
 Mixed Optimization -- En-DIIS/RFO-DIIS
 Swapping is turned off.
 Update second derivatives using D2CorX and points    7    9    8   11   10
                                                     12   13   14   15   16
 DE= -2.29D-05 DEPred=-2.45D-05 R= 9.36D-01
 TightC=F SS=  1.41D+00  RLast= 1.21D-02 DXNew= 3.1534D-01 3.6335D-02
 Trust test= 9.36D-01 RLast= 1.21D-02 DXMaxT set to 1.88D-01
 ITU=  1 -1 -1  1  0 -1  0 -1  1  0  1  1  1  1  1  0
     Eigenvalues ---    0.00230   0.03735   0.03742   0.03751   0.05363
     Eigenvalues ---    0.05365   0.05367   0.05368   0.11865   0.15931
     Eigenvalues ---    0.15990   0.15999   0.16000   0.16000   0.31830
     Eigenvalues ---    0.33652   0.34057   0.37512
 En-DIIS/RFO-DIIS IScMMF=        0 using points:    16   15   14   13
 RFO step:  Lambda=-1.19522095D-08.
 NNeg= 0 NP= 4 Switch=  2.50D-03 Rises=F DC= -1.94D-05 SmlDif=  1.00D-05
 RMS Error=  0.4522769848D-04 NUsed= 4 EDIIS=F
 DidBck=T Rises=F RFO-DIIS coefs:    0.39307    0.12600    0.10002    0.38091
 Iteration  1 RMS(Cart)=  0.00007622 RMS(Int)=  0.00000017
 Iteration  2 RMS(Cart)=  0.00000000 RMS(Int)=  0.00000017
 ITry= 1 IFail=0 DXMaxC= 2.31D-04 DCOld= 1.00D+10 DXMaxT= 1.88D-01 DXLimC= 3.00D+00 Rises=F
 Variable       Old X    -DE/DX   Delta X   Delta X   Delta X     New X
                                 (Linear)    (Quad)   (Total)
    R1        2.89228   0.00000   0.00014  -0.00012   0.00002   2.89230
    R2        2.07144   0.00000  -0.00006   0.00016   0.00010   2.07154
    R3        2.07151  -0.00002  -0.00011   0.00004  -0.00007   2.07144
    R4        2.07148  -0.00001  -0.00008   0.00006  -0.00003   2.07145
    R5        2.07141   0.00001   0.00006   0.00016   0.00022   2.07163
    R6        2.07158  -0.00005  -0.00008  -0.00032  -0.00040   2.07118
    R7        2.07147   0.00000   0.00003   0.00002   0.00006   2.07153
    A1        1.94344   0.00000  -0.00005   0.00005   0.00000   1.94344
    A2        1.94342   0.00000  -0.00005   0.00006   0.00001   1.94344
    A3        1.94345   0.00000  -0.00002   0.00000  -0.00002   1.94343
    A4        1.87671   0.00000   0.00003  -0.00001   0.00002   1.87673
    A5        1.87675   0.00000   0.00004  -0.00006  -0.00001   1.87673
    A6        1.87670   0.00000   0.00005  -0.00005   0.00000   1.87670
    A7        1.94345   0.00000  -0.00003   0.00001  -0.00002   1.94343
    A8        1.94344   0.00000  -0.00005   0.00005   0.00000   1.94343
    A9        1.94342   0.00000  -0.00005   0.00006   0.00002   1.94343
   A10        1.87675   0.00000   0.00004  -0.00006  -0.00002   1.87673
   A11        1.87670   0.00000   0.00006  -0.00005   0.00000   1.87671
   A12        1.87671   0.00000   0.00004  -0.00002   0.00002   1.87673
    D1        1.04715   0.00001   0.00000   0.00004   0.00004   1.04719
    D2       -3.14159   0.00000   0.00000   0.00000   0.00000  -3.14159
    D3       -1.04722   0.00000  -0.00002   0.00005   0.00003  -1.04719
    D4       -1.04722   0.00000   0.00002  -0.00002   0.00000  -1.04722
    D5        1.04723  -0.00001   0.00002  -0.00006  -0.00004   1.04719
    D6       -3.14159   0.00000   0.00000   0.00000  -0.00001   3.14159
    D7       -3.14159   0.00000   0.00001   0.00000   0.00000  -3.14159
    D8       -1.04715   0.00000   0.00000  -0.00004  -0.00003  -1.04718
    D9        1.04722   0.00000  -0.00001   0.00001   0.00000   1.04722
         Item               Value     Threshold  Converged?
 Maximum Force            0.000047     0.000450     YES
 RMS     Force            0.000010     0.000300     YES
 Maximum Displacement     0.000231     0.001800     YES
 RMS     Displacement     0.000076     0.001200     YES
 Predicted change in Energy=-1.852833D-08
 Optimization completed.
    -- Stationary point found.
                           ----------------------------
                           !   Optimized Parameters   !
                           ! (Angstroms and Degrees)  !
 --------------------------                            --------------------------
 ! Name  Definition              Value          Derivative Info.                !
 --------------------------------------------------------------------------------
 ! R1    R(1,2)                  1.5305         -DE/DX =    0.0                 !
 ! R2    R(1,3)                  1.0962         -DE/DX =    0.0                 !
 ! R3    R(1,4)                  1.0962         -DE/DX =    0.0                 !
 ! R4    R(1,5)                  1.0962         -DE/DX =    0.0                 !
 ! R5    R(2,6)                  1.0961         -DE/DX =    0.0                 !
 ! R6    R(2,7)                  1.0962         -DE/DX =    0.0                 !
 ! R7    R(2,8)                  1.0962         -DE/DX =    0.0                 !
 ! A1    A(2,1,3)              111.3508         -DE/DX =    0.0                 !
 ! A2    A(2,1,4)              111.3498         -DE/DX =    0.0                 !
 ! A3    A(2,1,5)              111.3518         -DE/DX =    0.0                 !
 ! A4    A(3,1,4)              107.5273         -DE/DX =    0.0                 !
 ! A5    A(3,1,5)              107.5296         -DE/DX =    0.0                 !
 ! A6    A(4,1,5)              107.5271         -DE/DX =    0.0                 !
 ! A7    A(1,2,6)              111.3516         -DE/DX =    0.0                 !
 ! A8    A(1,2,7)              111.3507         -DE/DX =    0.0                 !
 ! A9    A(1,2,8)              111.3497         -DE/DX =    0.0                 !
 ! A10   A(6,2,7)              107.5299         -DE/DX =    0.0                 !
 ! A11   A(6,2,8)              107.5271         -DE/DX =    0.0                 !
 ! A12   A(7,2,8)              107.5275         -DE/DX =    0.0                 !
 ! D1    D(3,1,2,6)             59.9974         -DE/DX =    0.0                 !
 ! D2    D(3,1,2,7)           -179.9997         -DE/DX =    0.0                 !
 ! D3    D(3,1,2,8)            -60.0012         -DE/DX =    0.0                 !
 ! D4    D(4,1,2,6)            -60.0011         -DE/DX =    0.0                 !
 ! D5    D(4,1,2,7)             60.0018         -DE/DX =    0.0                 !
 ! D6    D(4,1,2,8)            180.0003         -DE/DX =    0.0                 !
 ! D7    D(5,1,2,6)           -179.9999         -DE/DX =    0.0                 !
 ! D8    D(5,1,2,7)            -59.997          -DE/DX =    0.0                 !
 ! D9    D(5,1,2,8)             60.0015         -DE/DX =    0.0                 !
 --------------------------------------------------------------------------------
 Lowest energy point so far.  Saving SCF results.
 GradGradGradGradGradGradGradGradGradGradGradGradGradGradGradGradGradGrad

 Largest change from initial coordinates is atom    6       2.125 Angstoms.
 Leave Link  103 at Thu Mar 19 16:59:58 2026, MaxMem=   536870912 cpu:         0.0
 (Enter C:\G09W\l202.exe)
                          Input orientation:                          
 ---------------------------------------------------------------------
 Center     Atomic      Atomic             Coordinates (Angstroms)
 Number     Number       Type             X           Y           Z
 ---------------------------------------------------------------------
      1          6           0       -0.759881   -0.090365   -0.006709
      2          6           0        0.759880    0.090372    0.006730
      3          1           0       -1.217043    0.306247    0.907222
      4          1           0       -1.035261   -1.148799   -0.081093
      5          1           0       -1.216186    0.429996   -0.856777
      6          1           0        1.216169   -0.429975    0.856773
      7          1           0        1.217071   -0.306262   -0.907264
      8          1           0        1.035251    1.148786    0.081118
 ---------------------------------------------------------------------
                    Distance matrix (angstroms):
                    1          2          3          4          5
     1  C    0.000000
     2  C    1.530529   0.000000
     3  H    1.096160   2.183052   0.000000
     4  H    1.096198   2.183068   1.768324   0.000000
     5  H    1.096178   2.183077   1.768335   1.768336   0.000000
     6  H    2.183050   1.096145   2.542654   2.542683   3.097120
     7  H    2.183105   1.096233   3.097166   2.542719   2.542708
     8  H    2.183050   1.096177   2.542666   3.097133   2.542691
                    6          7          8
     6  H    0.000000
     7  H    1.768369   0.000000
     8  H    1.768292   1.768368   0.000000
 Stoichiometry    C2H6
 Framework group  C1[X(C2H6)]
 Deg. of freedom    18
 Full point group                 C1      NOp   1
 RotChk:  IX=1 Diff= 3.13D-11
 Largest Abelian subgroup         C1      NOp   1
 Largest concise Abelian subgroup C1      NOp   1
                         Standard orientation:                         
 ---------------------------------------------------------------------
 Center     Atomic      Atomic             Coordinates (Angstroms)
 Number     Number       Type             X           Y           Z
 ---------------------------------------------------------------------
      1          6           0       -0.765265    0.000003   -0.000007
      2          6           0        0.765265    0.000007    0.000008
      3          1           0       -1.164352    1.017988   -0.077492
      4          1           0       -1.164356   -0.441883    0.920379
      5          1           0       -1.164365   -0.576136   -0.842853
      6          1           0        1.164350    0.576128    0.842830
      7          1           0        1.164377   -1.018046    0.077493
      8          1           0        1.164345    0.441890   -0.920360
 ---------------------------------------------------------------------
 Rotational constants (GHZ):     80.1810560     19.8932487     19.8931174
 Leave Link  202 at Thu Mar 19 16:59:58 2026, MaxMem=   536870912 cpu:         0.0
 (Enter C:\G09W\l601.exe)
 Copying SCF densities to generalized density rwf, IOpCl= 0 IROHF=0.

 **********************************************************************

            Population analysis using the SCF density.

 **********************************************************************

 Orbital symmetries:
       Occupied  (A) (A) (A) (A) (A) (A) (A) (A) (A)
       Virtual   (A) (A) (A) (A) (A) (A) (A) (A) (A) (A) (A) (A)
                 (A) (A) (A) (A) (A) (A) (A) (A) (A) (A) (A) (A)
                 (A) (A) (A) (A) (A) (A) (A) (A) (A)
 The electronic state is 1-A.
 Alpha  occ. eigenvalues --  -10.17237 -10.17216  -0.74741  -0.61196  -0.43008
 Alpha  occ. eigenvalues --   -0.43008  -0.36284  -0.34007  -0.34006
 Alpha virt. eigenvalues --    0.10477   0.15604   0.16368   0.16368   0.19022
 Alpha virt. eigenvalues --    0.19023   0.24254   0.51313   0.54375   0.54377
 Alpha virt. eigenvalues --    0.63680   0.63681   0.66851   0.88297   0.88298
 Alpha virt. eigenvalues --    0.90652   0.91963   0.91964   0.97927   1.06595
 Alpha virt. eigenvalues --    1.43937   1.52622   1.52624   1.93239   1.98089
 Alpha virt. eigenvalues --    1.98092   2.27056   2.27059   2.33310   2.33313
 Alpha virt. eigenvalues --    2.58722   4.14493   4.36591
          Condensed to atoms (all electrons):
               1          2          3          4          5          6
     1  C    5.012049   0.376141   0.382767   0.382763   0.382766  -0.034557
     2  C    0.376141   5.012050  -0.034560  -0.034560  -0.034555   0.382769
     3  H    0.382767  -0.034560   0.574865  -0.032368  -0.032365  -0.003627
     4  H    0.382763  -0.034560  -0.032368   0.574880  -0.032366  -0.003627
     5  H    0.382766  -0.034555  -0.032365  -0.032366   0.574862   0.004641
     6  H   -0.034557   0.382769  -0.003627  -0.003627   0.004641   0.574852
     7  H   -0.034558   0.382760   0.004641  -0.003627  -0.003627  -0.032363
     8  H   -0.034561   0.382764  -0.003627   0.004641  -0.003627  -0.032369
               7          8
     1  C   -0.034558  -0.034561
     2  C    0.382760   0.382764
     3  H    0.004641  -0.003627
     4  H   -0.003627   0.004641
     5  H   -0.003627  -0.003627
     6  H   -0.032363  -0.032369
     7  H    0.574884  -0.032366
     8  H   -0.032366   0.574874
 Mulliken charges:
               1
     1  C   -0.432811
     2  C   -0.432809
     3  H    0.144274
     4  H    0.144265
     5  H    0.144272
     6  H    0.144282
     7  H    0.144256
     8  H    0.144271
 Sum of Mulliken charges =   0.00000
 Mulliken charges with hydrogens summed into heavy atoms:
               1
     1  C    0.000001
     2  C   -0.000001
 Electronic spatial extent (au):  <R**2>=            109.6810
 Charge=              0.0000 electrons
 Dipole moment (field-independent basis, Debye):
    X=              0.0000    Y=              0.0001    Z=              0.0000  Tot=              0.0001
 Quadrupole moment (field-independent basis, Debye-Ang):
   XX=            -15.2310   YY=            -14.7142   ZZ=            -14.7143
   XY=              0.0001   XZ=              0.0001   YZ=              0.0001
 Traceless Quadrupole moment (field-independent basis, Debye-Ang):
   XX=             -0.3445   YY=              0.1723   ZZ=              0.1722
   XY=              0.0001   XZ=              0.0001   YZ=              0.0001
 Octapole moment (field-independent basis, Debye-Ang**2):
  XXX=             -0.0001  YYY=              0.0002  ZZZ=              0.0000  XYY=              0.0000
  XXY=              0.0002  XXZ=              0.0000  XZZ=              0.0000  YZZ=              0.0001
  YYZ=              0.0000  XYZ=              0.0000
 Hexadecapole moment (field-independent basis, Debye-Ang**3):
 XXXX=            -92.7244 YYYY=            -28.6621 ZZZZ=            -28.6615 XXXY=              0.0003
 XXXZ=              0.0003 YYYX=             -1.1672 YYYZ=              0.0002 ZZZX=             -0.2706
 ZZZY=              0.0001 XXYY=            -19.1592 XXZZ=            -19.1593 YYZZ=             -9.5539
 XXYZ=              0.0002 YYXZ=              0.2709 ZZXY=              1.1674
 N-N= 4.210899353500D+01 E-N=-2.680238575224D+02  KE= 7.897487149479D+01
 No NMR shielding tensors so no spin-rotation constants.
 Leave Link  601 at Thu Mar 19 16:59:59 2026, MaxMem=   536870912 cpu:         1.0
 (Enter C:\G09W\l9999.exe)
 1|1|UNPC-DESKTOP-GS7R1K3|FOpt|RB3LYP|6-31G(d)|C2H6|1172|19-Mar-2026|0|
 |#p opt B3LYP/6-31G(d)||ethane [xtb]||0,1|C,-0.759880807,-0.0903649542
 ,-0.0067085364|C,0.7598801731,0.0903718874,0.0067299815|H,-1.217043210
 3,0.3062472832,0.9072218843|H,-1.0352606568,-1.1487988982,-0.081093276
 9|H,-1.2161860878,0.429995593,-0.8567774602|H,1.2161687631,-0.42997489
 45,0.8567728435|H,1.2170706442,-0.306262338,-0.9072637197|H,1.03525119
 15,1.1487863213,0.0811182839||Version=EM64W-G09RevD.01|State=1-A|HF=-7
 9.8304181|RMSD=9.458e-009|RMSF=1.722e-005|Dipole=-0.000005,0.00001,0.0
 000282|Quadrupole=-0.2507283,0.1226187,0.1281096,-0.0450679,-0.0032725
 ,-0.0003908|PG=C01 [X(C2H6)]||@


 TO BEHOLD HARMS OF OUR OWN HANDS DOING,
 WHERE NONE BESIDE US WROUGHT,
 CAUSES SHARP RUING...

                                         SOPHOCLES
 Job cpu time:       0 days  0 hours  1 minutes 19.0 seconds.
 File lengths (MBytes):  RWF=      5 Int=      0 D2E=      0 Chk=      1 Scr=      1
 Normal termination of Gaussian 09 at Thu Mar 19 16:59:59 2026.
