 Entering Gaussian System, Link 0=C:\G09W\g09.exe
 Input=propane_xtb.com
 Output=C:\workspace\delta_chem\benchmark_results\propane\propane_xtb.out
 Initial command:
 C:\G09W\l1.exe ".\Gau-14392.inp" "C:\workspace\delta_chem\benchmark_results\propane\propane_xtb.out" /scrdir=".\"
 Entering Link 1 = C:\G09W\l1.exe PID=      5272.
  
 Copyright (c) 1988,1990,1992,1993,1995,1998,2003,2009,2013,
            Gaussian, Inc.  All Rights Reserved.
  
 This is part of the Gaussian(R) 09 program.  It is based on
 the Gaussian(R) 03 system (copyright 2003, Gaussian, Inc.),
 the Gaussian(R) 98 system (copyright 1998, Gaussian, Inc.),
 the Gaussian(R) 94 system (copyright 1995, Gaussian, Inc.),
 the Gaussian 92(TM) system (copyright 1992, Gaussian, Inc.),
 the Gaussian 90(TM) system (copyright 1990, Gaussian, Inc.),
 the Gaussian 88(TM) system (copyright 1988, Gaussian, Inc.),
 the Gaussian 86(TM) system (copyright 1986, Carnegie Mellon
 University), and the Gaussian 82(TM) system (copyright 1983,
 Carnegie Mellon University). Gaussian is a federally registered
 trademark of Gaussian, Inc.
  
 This software contains proprietary and confidential information,
 including trade secrets, belonging to Gaussian, Inc.
  
 This software is provided under written license and may be
 used, copied, transmitted, or stored only in accord with that
 written license.
  
 The following legend is applicable only to US Government
 contracts under FAR:
  
                    RESTRICTED RIGHTS LEGEND
  
 Use, reproduction and disclosure by the US Government is
 subject to restrictions as set forth in subparagraphs (a)
 and (c) of the Commercial Computer Software - Restricted
 Rights clause in FAR 52.227-19.
  
 Gaussian, Inc.
 340 Quinnipiac St., Bldg. 40, Wallingford CT 06492
  
  
 ---------------------------------------------------------------
 Warning -- This program may not be used in any manner that
 competes with the business of Gaussian, Inc. or will provide
 assistance to any competitor of Gaussian, Inc.  The licensee
 of this program is prohibited from giving any competitor of
 Gaussian, Inc. access to this program.  By using this program,
 the user acknowledges that Gaussian, Inc. is engaged in the
 business of creating and licensing software in the field of
 computational chemistry and represents and warrants to the
 licensee that it is not a competitor of Gaussian, Inc. and that
 it will not use this program in any manner prohibited above.
 ---------------------------------------------------------------
  

 Cite this work as:
 Gaussian 09, Revision D.01,
 M. J. Frisch, G. W. Trucks, H. B. Schlegel, G. E. Scuseria, 
 M. A. Robb, J. R. Cheeseman, G. Scalmani, V. Barone, B. Mennucci, 
 G. A. Petersson, H. Nakatsuji, M. Caricato, X. Li, H. P. Hratchian, 
 A. F. Izmaylov, J. Bloino, G. Zheng, J. L. Sonnenberg, M. Hada, 
 M. Ehara, K. Toyota, R. Fukuda, J. Hasegawa, M. Ishida, T. Nakajima, 
 Y. Honda, O. Kitao, H. Nakai, T. Vreven, J. A. Montgomery, Jr., 
 J. E. Peralta, F. Ogliaro, M. Bearpark, J. J. Heyd, E. Brothers, 
 K. N. Kudin, V. N. Staroverov, T. Keith, R. Kobayashi, J. Normand, 
 K. Raghavachari, A. Rendell, J. C. Burant, S. S. Iyengar, J. Tomasi, 
 M. Cossi, N. Rega, J. M. Millam, M. Klene, J. E. Knox, J. B. Cross, 
 V. Bakken, C. Adamo, J. Jaramillo, R. Gomperts, R. E. Stratmann, 
 O. Yazyev, A. J. Austin, R. Cammi, C. Pomelli, J. W. Ochterski, 
 R. L. Martin, K. Morokuma, V. G. Zakrzewski, G. A. Voth, 
 P. Salvador, J. J. Dannenberg, S. Dapprich, A. D. Daniels, 
 O. Farkas, J. B. Foresman, J. V. Ortiz, J. Cioslowski, 
 and D. J. Fox, Gaussian, Inc., Wallingford CT, 2013.
 
 ******************************************
 Gaussian 09:  EM64W-G09RevD.01 13-Apr-2013
                19-Mar-2026 
 ******************************************
 %NProcShared=4
 Will use up to    4 processors via shared memory.
 %Mem=4GB
 %Chk=propane_xtb.chk
 ---------------------
 #p opt B3LYP/6-31G(d)
 ---------------------
 1/14=-1,18=20,19=15,26=3,38=1/1,3;
 2/9=110,12=2,17=6,18=5,40=1/2;
 3/5=1,6=6,7=1,11=2,16=1,25=1,30=1,71=1,74=-5/1,2,3;
 4//1;
 5/5=2,38=5/2;
 6/7=2,8=2,9=2,10=2,28=1/1;
 7//1,2,3,16;
 1/14=-1,18=20,19=15,26=3/3(2);
 2/9=110/2;
 99//99;
 2/9=110/2;
 3/5=1,6=6,7=1,11=2,16=1,25=1,30=1,71=1,74=-5/1,2,3;
 4/5=5,16=3,69=1/1;
 5/5=2,38=5/2;
 7//1,2,3,16;
 1/14=-1,18=20,19=15,26=3/3(-5);
 2/9=110/2;
 6/7=2,8=2,9=2,10=2,19=2,28=1/1;
 99/9=1/99;
 Leave Link    1 at Thu Mar 19 17:00:24 2026, MaxMem=   536870912 cpu:         0.0
 (Enter C:\G09W\l101.exe)
 -------------
 propane [xtb]
 -------------
 Symbolic Z-matrix:
 Charge =  0 Multiplicity = 1
 C                    -0.66974  -0.04063   0.12386 
 C                     1.16432  -0.72422   1.22117 
 C                     1.1894    1.44262  -0.13714 
 H                    -0.49608  -1.56011   0.80465 
 H                    -1.44836  -2.4792    1.7861 
 H                    -0.38973   1.28884  -2.65872 
 H                     1.20797  -0.31777  -0.40528 
 H                    -0.2299    0.97847  -1.07096 
 H                     0.3372    0.81113   1.16917 
 H                     0.52917  -1.22038  -1.63912 
 H                    -1.19425   1.82124   0.80626 
 
 Add virtual bond connecting atoms H8         and H6         Dist= 3.07D+00.
 Add virtual bond connecting atoms H8         and C1         Dist= 3.08D+00.
 Add virtual bond connecting atoms H5         and H4         Dist= 3.11D+00.
 Add virtual bond connecting atoms H10        and H7         Dist= 3.16D+00.
 Add virtual bond connecting atoms H4         and C1         Dist= 3.16D+00.
 Add virtual bond connecting atoms H7         and C2         Dist= 3.17D+00.
 Add virtual bond connecting atoms H9         and C3         Dist= 3.18D+00.
 Add virtual bond connecting atoms C3         and H8         Dist= 3.33D+00.
 Add virtual bond connecting atoms H9         and C1         Dist= 3.18D+00.
 Add virtual bond connecting atoms C3         and H7         Dist= 3.37D+00.
 Add virtual bond connecting atoms H9         and C2         Dist= 3.30D+00.
 Add virtual bond connecting atoms H11        and H9         Dist= 3.53D+00.
 NAtoms=     11 NQM=       11 NQMF=       0 NMMI=      0 NMMIF=      0
                NMic=       0 NMicF=      0.
                    Isotopes and Nuclear Properties:
 (Nuclear quadrupole moments (NQMom) in fm**2, nuclear magnetic moments (NMagM)
  in nuclear magnetons)

  Atom         1           2           3           4           5           6           7           8           9          10
 IAtWgt=          12          12          12           1           1           1           1           1           1           1
 AtmWgt=  12.0000000  12.0000000  12.0000000   1.0078250   1.0078250   1.0078250   1.0078250   1.0078250   1.0078250   1.0078250
 NucSpn=           0           0           0           1           1           1           1           1           1           1
 AtZEff=   0.0000000   0.0000000   0.0000000   0.0000000   0.0000000   0.0000000   0.0000000   0.0000000   0.0000000   0.0000000
 NQMom=    0.0000000   0.0000000   0.0000000   0.0000000   0.0000000   0.0000000   0.0000000   0.0000000   0.0000000   0.0000000
 NMagM=    0.0000000   0.0000000   0.0000000   2.7928460   2.7928460   2.7928460   2.7928460   2.7928460   2.7928460   2.7928460
 AtZNuc=   6.0000000   6.0000000   6.0000000   1.0000000   1.0000000   1.0000000   1.0000000   1.0000000   1.0000000   1.0000000

  Atom        11
 IAtWgt=           1
 AtmWgt=   1.0078250
 NucSpn=           1
 AtZEff=   0.0000000
 NQMom=    0.0000000
 NMagM=    2.7928460
 AtZNuc=   1.0000000
 Leave Link  101 at Thu Mar 19 17:00:25 2026, MaxMem=   536870912 cpu:         0.0
 (Enter C:\G09W\l103.exe)

 GradGradGradGradGradGradGradGradGradGradGradGradGradGradGradGradGradGrad
 Berny optimization.
 Initialization pass.
                           ----------------------------
                           !    Initial Parameters    !
                           ! (Angstroms and Degrees)  !
 --------------------------                            --------------------------
 ! Name  Definition              Value          Derivative Info.                !
 --------------------------------------------------------------------------------
 ! R1    R(1,4)                  1.674          estimate D2E/DX2                !
 ! R2    R(1,8)                  1.6308         estimate D2E/DX2                !
 ! R3    R(1,9)                  1.6829         estimate D2E/DX2                !
 ! R4    R(2,7)                  1.677          estimate D2E/DX2                !
 ! R5    R(2,9)                  1.7447         estimate D2E/DX2                !
 ! R6    R(3,7)                  1.7808         estimate D2E/DX2                !
 ! R7    R(3,8)                  1.7612         estimate D2E/DX2                !
 ! R8    R(3,9)                  1.6827         estimate D2E/DX2                !
 ! R9    R(4,5)                  1.6477         estimate D2E/DX2                !
 ! R10   R(6,8)                  1.6257         estimate D2E/DX2                !
 ! R11   R(7,10)                 1.6727         estimate D2E/DX2                !
 ! R12   R(9,11)                 1.8701         estimate D2E/DX2                !
 ! A1    A(4,1,8)              146.8419         estimate D2E/DX2                !
 ! A2    A(4,1,9)               98.3218         estimate D2E/DX2                !
 ! A3    A(8,1,9)               88.7059         estimate D2E/DX2                !
 ! A4    A(7,2,9)               76.7122         estimate D2E/DX2                !
 ! A5    A(7,3,8)               70.6128         estimate D2E/DX2                !
 ! A6    A(7,3,9)               75.5932         estimate D2E/DX2                !
 ! A7    A(8,3,9)               84.5248         estimate D2E/DX2                !
 ! A8    A(1,4,5)              133.5189         estimate D2E/DX2                !
 ! A9    A(2,7,3)               95.3522         estimate D2E/DX2                !
 ! A10   A(2,7,10)             125.033          estimate D2E/DX2                !
 ! A11   A(3,7,10)             129.8125         estimate D2E/DX2                !
 ! A12   A(1,8,3)               89.6315         estimate D2E/DX2                !
 ! A13   A(1,8,6)              143.9338         estimate D2E/DX2                !
 ! A14   A(3,8,6)              123.145          estimate D2E/DX2                !
 ! A15   A(1,9,2)               81.7655         estimate D2E/DX2                !
 ! A16   A(1,9,3)               90.6172         estimate D2E/DX2                !
 ! A17   A(1,9,11)              70.297          estimate D2E/DX2                !
 ! A18   A(2,9,3)               96.5053         estimate D2E/DX2                !
 ! A19   A(2,9,11)             150.3775         estimate D2E/DX2                !
 ! A20   A(3,9,11)              93.5192         estimate D2E/DX2                !
 ! D1    D(8,1,4,5)           -156.7429         estimate D2E/DX2                !
 ! D2    D(9,1,4,5)            102.7618         estimate D2E/DX2                !
 ! D3    D(4,1,8,3)            -84.2674         estimate D2E/DX2                !
 ! D4    D(4,1,8,6)             72.6464         estimate D2E/DX2                !
 ! D5    D(9,1,8,3)             19.0361         estimate D2E/DX2                !
 ! D6    D(9,1,8,6)            175.95           estimate D2E/DX2                !
 ! D7    D(4,1,9,2)             31.0108         estimate D2E/DX2                !
 ! D8    D(4,1,9,3)            127.4947         estimate D2E/DX2                !
 ! D9    D(4,1,9,11)          -138.9883         estimate D2E/DX2                !
 ! D10   D(8,1,9,2)           -116.4458         estimate D2E/DX2                !
 ! D11   D(8,1,9,3)            -19.962          estimate D2E/DX2                !
 ! D12   D(8,1,9,11)            73.5551         estimate D2E/DX2                !
 ! D13   D(9,2,7,3)             28.8252         estimate D2E/DX2                !
 ! D14   D(9,2,7,10)          -119.5015         estimate D2E/DX2                !
 ! D15   D(7,2,9,1)             58.9307         estimate D2E/DX2                !
 ! D16   D(7,2,9,3)            -30.7515         estimate D2E/DX2                !
 ! D17   D(7,2,9,11)            78.2465         estimate D2E/DX2                !
 ! D18   D(8,3,7,2)           -119.3502         estimate D2E/DX2                !
 ! D19   D(8,3,7,10)            26.6136         estimate D2E/DX2                !
 ! D20   D(9,3,7,2)            -30.1544         estimate D2E/DX2                !
 ! D21   D(9,3,7,10)           115.8094         estimate D2E/DX2                !
 ! D22   D(7,3,8,1)             57.5059         estimate D2E/DX2                !
 ! D23   D(7,3,8,6)           -106.49           estimate D2E/DX2                !
 ! D24   D(9,3,8,1)            -19.124          estimate D2E/DX2                !
 ! D25   D(9,3,8,6)            176.8801         estimate D2E/DX2                !
 ! D26   D(7,3,9,1)            -52.8453         estimate D2E/DX2                !
 ! D27   D(7,3,9,2)             28.9371         estimate D2E/DX2                !
 ! D28   D(7,3,9,11)          -123.1426         estimate D2E/DX2                !
 ! D29   D(8,3,9,1)             18.5114         estimate D2E/DX2                !
 ! D30   D(8,3,9,2)            100.2938         estimate D2E/DX2                !
 ! D31   D(8,3,9,11)           -51.786          estimate D2E/DX2                !
 --------------------------------------------------------------------------------
 Trust Radius=3.00D-01 FncErr=1.00D-07 GrdErr=1.00D-06
 Number of steps in this run=     73 maximum allowed number of steps=    100.
 GradGradGradGradGradGradGradGradGradGradGradGradGradGradGradGradGradGrad

 Leave Link  103 at Thu Mar 19 17:00:26 2026, MaxMem=   536870912 cpu:         1.0
 (Enter C:\G09W\l202.exe)
                          Input orientation:                          
 ---------------------------------------------------------------------
 Center     Atomic      Atomic             Coordinates (Angstroms)
 Number     Number       Type             X           Y           Z
 ---------------------------------------------------------------------
      1          6           0       -0.669741   -0.040632    0.123864
      2          6           0        1.164319   -0.724216    1.221172
      3          6           0        1.189398    1.442618   -0.137138
      4          1           0       -0.496085   -1.560108    0.804653
      5          1           0       -1.448364   -2.479204    1.786103
      6          1           0       -0.389726    1.288840   -2.658724
      7          1           0        1.207974   -0.317768   -0.405281
      8          1           0       -0.229900    0.978472   -1.070958
      9          1           0        0.337202    0.811135    1.169167
     10          1           0        0.529174   -1.220377   -1.639117
     11          1           0       -1.194250    1.821240    0.806257
 ---------------------------------------------------------------------
                    Distance matrix (angstroms):
                    1          2          3          4          5
     1  C    0.000000
     2  C    2.243914   0.000000
     3  C    2.392603   2.557499   0.000000
     4  H    1.674049   1.905032   3.569900   0.000000
     5  H    3.052200   3.197693   5.102678   1.647670   0.000000
     6  H    3.096562   4.639078   2.979207   4.485844   5.922445
     7  H    1.970434   1.677038   1.780788   2.431288   4.065722
     8  H    1.630838   3.177555   1.761209   3.167516   4.647900
     9  H    1.682883   1.744743   1.682688   2.539691   3.794098
    10  H    2.436658   2.971673   3.127840   2.671813   4.150595
    11  H    2.051180   3.494904   2.591356   3.452674   4.417974
                    6          7          8          9         10
     6  H    0.000000
     7  H    3.195597   0.000000
     8  H    1.625692   2.047155   0.000000
     9  H    3.925477   2.124041   2.316843   0.000000
    10  H    2.860095   1.672670   2.394565   3.471362   0.000000
    11  H    3.596777   3.437130   2.272480   1.870124   4.266320
                   11
    11  H    0.000000
 Stoichiometry    C3H8
 Framework group  C1[X(C3H8)]
 Deg. of freedom    27
 Full point group                 C1      NOp   1
 Largest Abelian subgroup         C1      NOp   1
 Largest concise Abelian subgroup C1      NOp   1
                         Standard orientation:                         
 ---------------------------------------------------------------------
 Center     Atomic      Atomic             Coordinates (Angstroms)
 Number     Number       Type             X           Y           Z
 ---------------------------------------------------------------------
      1          6           0        0.233321    0.957287   -0.239491
      2          6           0        1.120440   -1.064566    0.160857
      3          6           0       -1.403081   -0.785763   -0.147224
      4          1           0        1.815861    0.706972    0.245635
      5          1           0        3.270124    1.257621   -0.299086
      6          1           0       -2.480031    1.725690    1.039562
      7          1           0       -0.149236   -0.460173    1.074688
      8          1           0       -1.342168    0.943415    0.181548
      9          1           0       -0.008257   -0.500812   -1.044280
     10          1           0       -0.027913    0.791631    2.177452
     11          1           0       -0.782454    0.893905   -2.020368
 ---------------------------------------------------------------------
 Rotational constants (GHZ):      9.5697521      6.6828294      4.9754328
 Leave Link  202 at Thu Mar 19 17:00:26 2026, MaxMem=   536870912 cpu:         0.0
 (Enter C:\G09W\l301.exe)
 Standard basis: 6-31G(d) (6D, 7F)
 Ernie: Thresh=  0.10000D-02 Tol=  0.10000D-05 Strict=F.
 There are    61 symmetry adapted cartesian basis functions of A   symmetry.
 There are    61 symmetry adapted basis functions of A   symmetry.
    61 basis functions,   116 primitive gaussians,    61 cartesian basis functions
    13 alpha electrons       13 beta electrons
       nuclear repulsion energy        61.7638652062 Hartrees.
 IExCor=  402 DFT=T Ex+Corr=B3LYP ExCW=0 ScaHFX=  0.200000
 ScaDFX=  0.800000  0.720000  1.000000  0.810000 ScalE2=  1.000000  1.000000
 IRadAn=      0 IRanWt=     -1 IRanGd=            0 ICorTp=0 IEmpDi=  4
 NAtoms=   11 NActive=   11 NUniq=   11 SFac= 1.00D+00 NAtFMM=   60 NAOKFM=F Big=F
 Integral buffers will be    131072 words long.
 Raffenetti 2 integral format.
 Two-electron integral symmetry is turned on.
 Leave Link  301 at Thu Mar 19 17:00:26 2026, MaxMem=   536870912 cpu:         0.0
 (Enter C:\G09W\l302.exe)
 NPDir=0 NMtPBC=     1 NCelOv=     1 NCel=       1 NClECP=     1 NCelD=      1
         NCelK=      1 NCelE2=     1 NClLst=     1 CellRange=     0.0.
 One-electron integrals computed using PRISM.
 NBasis=    61 RedAO= T EigKep=  4.14D-02  NBF=    61
 NBsUse=    61 1.00D-06 EigRej= -1.00D+00 NBFU=    61
 Precomputing XC quadrature grid using
 IXCGrd= 4 IRadAn=           0 IRanWt=          -1 IRanGd=           0 AccXCQ= 0.00D+00.
 Generated NRdTot=       0 NPtTot=           0 NUsed=           0 NTot=          32
 NSgBfM=    61    61    61    61    61 MxSgAt=    11 MxSgA2=    11.
 Leave Link  302 at Thu Mar 19 17:00:26 2026, MaxMem=   536870912 cpu:         0.0
 (Enter C:\G09W\l303.exe)
 DipDrv:  MaxL=1.
 Leave Link  303 at Thu Mar 19 17:00:26 2026, MaxMem=   536870912 cpu:         0.0
 (Enter C:\G09W\l401.exe)
 ExpMin= 1.61D-01 ExpMax= 3.05D+03 ExpMxC= 4.57D+02 IAcc=1 IRadAn=         1 AccDes= 0.00D+00
 Harris functional with IExCor=  402 and IRadAn=       1 diagonalized for initial guess.
 HarFok:  IExCor=  402 AccDes= 0.00D+00 IRadAn=         1 IDoV= 1 UseB2=F ITyADJ=14
 ICtDFT=  3500011 ScaDFX=  1.000000  1.000000  1.000000  1.000000
 FoFCou: FMM=F IPFlag=           0 FMFlag=      100000 FMFlg1=           0
         NFxFlg=           0 DoJE=T BraDBF=F KetDBF=T FulRan=T
         wScrn=  0.000000 ICntrl=     500 IOpCl=  0 I1Cent=   200000004 NGrid=           0
         NMat0=    1 NMatS0=      1 NMatT0=    0 NMatD0=    1 NMtDS0=    0 NMtDT0=    0
 Petite list used in FoFCou.
 Harris En= -117.954159047958    
 JPrj=0 DoOrth=F DoCkMO=F.
 Leave Link  401 at Thu Mar 19 17:00:27 2026, MaxMem=   536870912 cpu:         0.0
 (Enter C:\G09W\l502.exe)
 Closed shell SCF:
 Using DIIS extrapolation, IDIIS=  1040.
 Integral symmetry usage will be decided dynamically.
 Keep R1 ints in memory in canonical form, NReq=2701164.
 IVT=       30556 IEndB=       30556 NGot=   536870912 MDV=   535051471
 LenX=   535051471 LenY=   535047309
 Requested convergence on RMS density matrix=1.00D-08 within 128 cycles.
 Requested convergence on MAX density matrix=1.00D-06.
 Requested convergence on             energy=1.00D-06.
 No special actions if energy rises.
 FoFCou: FMM=F IPFlag=           0 FMFlag=           0 FMFlg1=           0
         NFxFlg=           0 DoJE=F BraDBF=F KetDBF=F FulRan=T
         wScrn=  0.000000 ICntrl=     600 IOpCl=  0 I1Cent=           0 NGrid=           0
         NMat0=    1 NMatS0=   1891 NMatT0=    0 NMatD0=    1 NMtDS0=    0 NMtDT0=    0
 Symmetry not used in FoFCou.
 Integral accuracy reduced to 1.0D-05 until final iterations.

 Cycle   1  Pass 0  IDiag  1:
 E= -117.785104145178    
 DIIS: error= 4.17D-02 at cycle   1 NSaved=   1.
 NSaved= 1 IEnMin= 1 EnMin= -117.785104145178     IErMin= 1 ErrMin= 4.17D-02
 ErrMax= 4.17D-02  0.00D+00 EMaxC= 1.00D-01 BMatC= 6.94D-02 BMatP= 6.94D-02
 IDIUse=3 WtCom= 5.83D-01 WtEn= 4.17D-01
 Coeff-Com:  0.100D+01
 Coeff-En:   0.100D+01
 Coeff:      0.100D+01
 Gap=     0.033 Goal=   None    Shift=    0.000
 GapD=    0.033 DampG=0.250 DampE=0.500 DampFc=0.2500 IDamp=-1.
 Damping current iteration by 2.50D-01
 RMSDP=2.52D-02 MaxDP=4.14D-01              OVMax= 9.00D-01

 Cycle   2  Pass 0  IDiag  1:
 E= -117.750295040832     Delta-E=        0.034809104346 Rises=F Damp=T
 DIIS: error= 2.38D-02 at cycle   2 NSaved=   2.
 NSaved= 2 IEnMin= 1 EnMin= -117.785104145178     IErMin= 2 ErrMin= 2.38D-02
 ErrMax= 2.38D-02  0.00D+00 EMaxC= 1.00D-01 BMatC= 2.92D-02 BMatP= 6.94D-02
 IDIUse=3 WtCom= 7.62D-01 WtEn= 2.38D-01
 Coeff-Com:  0.342D+00 0.658D+00
 Coeff-En:   0.573D+00 0.427D+00
 Coeff:      0.397D+00 0.603D+00
 Gap=     0.053 Goal=   None    Shift=    0.000
 RMSDP=1.48D-02 MaxDP=2.38D-01 DE= 3.48D-02 OVMax= 9.12D-01

 Cycle   3  Pass 0  IDiag  1:
 E= -117.416129912606     Delta-E=        0.334165128226 Rises=F Damp=F
 DIIS: error= 4.55D-02 at cycle   3 NSaved=   3.
 NSaved= 3 IEnMin= 1 EnMin= -117.785104145178     IErMin= 2 ErrMin= 2.38D-02
 ErrMax= 4.55D-02  0.00D+00 EMaxC= 1.00D-01 BMatC= 1.85D-01 BMatP= 2.92D-02
 IDIUse=2 WtCom= 0.00D+00 WtEn= 1.00D+00
 EnCoef did     2 forward-backward iterations
 Coeff-En:   0.505D+00 0.367D+00 0.128D+00
 Coeff:      0.505D+00 0.367D+00 0.128D+00
 Gap=    -0.015 Goal=   None    Shift=    0.000
 RMSDP=1.72D-02 MaxDP=2.32D-01 DE= 3.34D-01 OVMax= 7.92D-01

 Cycle   4  Pass 0  IDiag  1:
 E= -117.459623946934     Delta-E=       -0.043494034328 Rises=F Damp=F
 DIIS: error= 7.62D-02 at cycle   4 NSaved=   4.
 NSaved= 4 IEnMin= 1 EnMin= -117.785104145178     IErMin= 2 ErrMin= 2.38D-02
 ErrMax= 7.62D-02  0.00D+00 EMaxC= 1.00D-01 BMatC= 2.60D-01 BMatP= 2.92D-02
 IDIUse=2 WtCom= 0.00D+00 WtEn= 1.00D+00
 EnCoef did   100 forward-backward iterations
 Coeff-En:   0.639D+00 0.882D-02 0.662D-01 0.286D+00
 Coeff:      0.639D+00 0.882D-02 0.662D-01 0.286D+00
 Gap=     0.016 Goal=   None    Shift=    0.000
 RMSDP=1.08D-02 MaxDP=1.89D-01 DE=-4.35D-02 OVMax= 4.83D-01

 Cycle   5  Pass 0  IDiag  1:
 E= -117.852967303810     Delta-E=       -0.393343356876 Rises=F Damp=F
 DIIS: error= 2.64D-02 at cycle   5 NSaved=   5.
 NSaved= 5 IEnMin= 5 EnMin= -117.852967303810     IErMin= 2 ErrMin= 2.38D-02
 ErrMax= 2.64D-02  0.00D+00 EMaxC= 1.00D-01 BMatC= 3.52D-02 BMatP= 2.92D-02
 IDIUse=2 WtCom= 0.00D+00 WtEn= 1.00D+00
 EnCoef did   100 forward-backward iterations
 Coeff-En:   0.420D+00 0.341D-02 0.000D+00 0.127D+00 0.450D+00
 Coeff:      0.420D+00 0.341D-02 0.000D+00 0.127D+00 0.450D+00
 Gap=     0.021 Goal=   None    Shift=    0.000
 RMSDP=8.61D-03 MaxDP=1.42D-01 DE=-3.93D-01 OVMax= 3.08D-01

 Cycle   6  Pass 0  IDiag  1:
 E= -117.732665133106     Delta-E=        0.120302170704 Rises=F Damp=F
 DIIS: error= 5.02D-02 at cycle   6 NSaved=   6.
 NSaved= 6 IEnMin= 5 EnMin= -117.852967303810     IErMin= 2 ErrMin= 2.38D-02
 ErrMax= 5.02D-02  0.00D+00 EMaxC= 1.00D-01 BMatC= 1.26D-01 BMatP= 2.92D-02
 IDIUse=2 WtCom= 0.00D+00 WtEn= 1.00D+00
 EnCoef did     3 forward-backward iterations
 Coeff-En:   0.245D+00 0.000D+00 0.000D+00 0.000D+00 0.514D+00 0.240D+00
 Coeff:      0.245D+00 0.000D+00 0.000D+00 0.000D+00 0.514D+00 0.240D+00
 Gap=     0.034 Goal=   None    Shift=    0.000
 RMSDP=6.91D-03 MaxDP=9.06D-02 DE= 1.20D-01 OVMax= 3.07D-01

 Cycle   7  Pass 0  IDiag  1:
 E= -117.891813483468     Delta-E=       -0.159148350362 Rises=F Damp=F
 DIIS: error= 1.41D-02 at cycle   7 NSaved=   7.
 NSaved= 7 IEnMin= 7 EnMin= -117.891813483468     IErMin= 7 ErrMin= 1.41D-02
 ErrMax= 1.41D-02  0.00D+00 EMaxC= 1.00D-01 BMatC= 1.06D-02 BMatP= 2.92D-02
 IDIUse=3 WtCom= 8.59D-01 WtEn= 1.41D-01
 EnCoef did     5 forward-backward iterations
 Coeff-Com:  0.978D-01-0.738D-03-0.582D-02-0.482D-01 0.382D+00 0.234D+00
 Coeff-Com:  0.341D+00
 Coeff-En:   0.264D-02 0.000D+00 0.000D+00 0.000D+00 0.320D+00 0.152D+00
 Coeff-En:   0.526D+00
 Coeff:      0.844D-01-0.634D-03-0.501D-02-0.415D-01 0.373D+00 0.223D+00
 Coeff:      0.367D+00
 Gap=     0.045 Goal=   None    Shift=    0.000
 RMSDP=5.15D-03 MaxDP=7.96D-02 DE=-1.59D-01 OVMax= 2.82D-01

 Cycle   8  Pass 0  IDiag  1:
 E= -117.916611835065     Delta-E=       -0.024798351597 Rises=F Damp=F
 DIIS: error= 8.21D-03 at cycle   8 NSaved=   8.
 NSaved= 8 IEnMin= 8 EnMin= -117.916611835065     IErMin= 8 ErrMin= 8.21D-03
 ErrMax= 8.21D-03  0.00D+00 EMaxC= 1.00D-01 BMatC= 3.29D-03 BMatP= 1.06D-02
 IDIUse=3 WtCom= 9.18D-01 WtEn= 8.21D-02
 Coeff-Com:  0.594D-02-0.382D-02-0.629D-02-0.190D-01 0.135D+00 0.636D-01
 Coeff-Com:  0.329D+00 0.495D+00
 Coeff-En:   0.000D+00 0.000D+00 0.000D+00 0.000D+00 0.000D+00 0.000D+00
 Coeff-En:   0.267D+00 0.733D+00
 Coeff:      0.545D-02-0.351D-02-0.577D-02-0.174D-01 0.124D+00 0.584D-01
 Coeff:      0.324D+00 0.515D+00
 Gap=     0.029 Goal=   None    Shift=    0.000
 RMSDP=2.63D-03 MaxDP=5.99D-02 DE=-2.48D-02 OVMax= 1.13D-01

 Cycle   9  Pass 0  IDiag  1:
 E= -117.918224473139     Delta-E=       -0.001612638074 Rises=F Damp=F
 DIIS: error= 7.94D-03 at cycle   9 NSaved=   9.
 NSaved= 9 IEnMin= 9 EnMin= -117.918224473139     IErMin= 9 ErrMin= 7.94D-03
 ErrMax= 7.94D-03  0.00D+00 EMaxC= 1.00D-01 BMatC= 1.95D-03 BMatP= 3.29D-03
 IDIUse=3 WtCom= 9.21D-01 WtEn= 7.94D-02
 EnCoef did     7 forward-backward iterations
 Coeff-Com: -0.173D-01-0.254D-02-0.559D-03 0.586D-03 0.175D-01-0.179D-01
 Coeff-Com:  0.229D+00 0.490D+00 0.300D+00
 Coeff-En:   0.000D+00 0.000D+00 0.000D+00 0.000D+00 0.000D+00 0.000D+00
 Coeff-En:   0.140D+00 0.475D+00 0.385D+00
 Coeff:     -0.159D-01-0.234D-02-0.515D-03 0.539D-03 0.161D-01-0.165D-01
 Coeff:      0.222D+00 0.489D+00 0.307D+00
 Gap=     0.034 Goal=   None    Shift=    0.000
 RMSDP=1.76D-03 MaxDP=3.56D-02 DE=-1.61D-03 OVMax= 9.51D-02

 Cycle  10  Pass 0  IDiag  1:
 E= -117.923851158462     Delta-E=       -0.005626685323 Rises=F Damp=F
 DIIS: error= 2.02D-03 at cycle  10 NSaved=  10.
 NSaved=10 IEnMin=10 EnMin= -117.923851158462     IErMin=10 ErrMin= 2.02D-03
 ErrMax= 2.02D-03  0.00D+00 EMaxC= 1.00D-01 BMatC= 1.84D-04 BMatP= 1.95D-03
 IDIUse=3 WtCom= 9.80D-01 WtEn= 2.02D-02
 EnCoef did     1 forward-backward iterations
 Coeff-Com: -0.938D-02 0.113D-01-0.210D-02 0.436D-03-0.837D-02-0.625D-02
 Coeff-Com:  0.448D-01 0.185D+00 0.181D+00 0.603D+00
 Coeff-En:   0.000D+00 0.000D+00 0.000D+00 0.000D+00 0.000D+00 0.000D+00
 Coeff-En:   0.000D+00 0.627D-02 0.931D-01 0.901D+00
 Coeff:     -0.919D-02 0.111D-01-0.206D-02 0.427D-03-0.820D-02-0.612D-02
 Coeff:      0.439D-01 0.182D+00 0.179D+00 0.609D+00
 Gap=     0.034 Goal=   None    Shift=    0.000
 RMSDP=5.03D-04 MaxDP=1.05D-02 DE=-5.63D-03 OVMax= 2.27D-02

 Cycle  11  Pass 0  IDiag  1:
 E= -117.924137642567     Delta-E=       -0.000286484105 Rises=F Damp=F
 DIIS: error= 1.11D-03 at cycle  11 NSaved=  11.
 NSaved=11 IEnMin=11 EnMin= -117.924137642567     IErMin=11 ErrMin= 1.11D-03
 ErrMax= 1.11D-03  0.00D+00 EMaxC= 1.00D-01 BMatC= 4.87D-05 BMatP= 1.84D-04
 IDIUse=3 WtCom= 9.89D-01 WtEn= 1.11D-02
 Coeff-Com: -0.639D-02 0.796D-02-0.224D-02 0.342D-03-0.112D-02 0.703D-02
 Coeff-Com: -0.860D-02 0.394D-01 0.525D-01 0.440D+00 0.471D+00
 Coeff-En:   0.000D+00 0.000D+00 0.000D+00 0.000D+00 0.000D+00 0.000D+00
 Coeff-En:   0.000D+00 0.000D+00 0.000D+00 0.188D+00 0.812D+00
 Coeff:     -0.632D-02 0.787D-02-0.221D-02 0.338D-03-0.111D-02 0.695D-02
 Coeff:     -0.851D-02 0.389D-01 0.519D-01 0.437D+00 0.475D+00
 Gap=     0.035 Goal=   None    Shift=    0.000
 RMSDP=2.09D-04 MaxDP=3.48D-03 DE=-2.86D-04 OVMax= 7.36D-03

 Cycle  12  Pass 0  IDiag  1:
 E= -117.924250644680     Delta-E=       -0.000113002113 Rises=F Damp=F
 DIIS: error= 5.20D-04 at cycle  12 NSaved=  12.
 NSaved=12 IEnMin=12 EnMin= -117.924250644680     IErMin=12 ErrMin= 5.20D-04
 ErrMax= 5.20D-04  0.00D+00 EMaxC= 1.00D-01 BMatC= 1.30D-05 BMatP= 4.87D-05
 IDIUse=3 WtCom= 9.95D-01 WtEn= 5.20D-03
 Coeff-Com: -0.388D-02 0.334D-02 0.554D-03 0.231D-03-0.444D-02 0.523D-02
 Coeff-Com: -0.181D-02-0.383D-03-0.115D-01-0.752D-01-0.484D-01 0.114D+01
 Coeff-En:   0.000D+00 0.000D+00 0.000D+00 0.000D+00 0.000D+00 0.000D+00
 Coeff-En:   0.000D+00 0.000D+00 0.000D+00 0.000D+00 0.000D+00 0.100D+01
 Coeff:     -0.386D-02 0.333D-02 0.551D-03 0.230D-03-0.442D-02 0.520D-02
 Coeff:     -0.180D-02-0.381D-03-0.114D-01-0.748D-01-0.482D-01 0.114D+01
 Gap=     0.035 Goal=   None    Shift=    0.000
 RMSDP=1.55D-04 MaxDP=1.36D-03 DE=-1.13D-04 OVMax= 9.45D-03

 Cycle  13  Pass 0  IDiag  1:
 E= -117.924265299443     Delta-E=       -0.000014654763 Rises=F Damp=F
 DIIS: error= 4.54D-04 at cycle  13 NSaved=  13.
 NSaved=13 IEnMin=13 EnMin= -117.924265299443     IErMin=13 ErrMin= 4.54D-04
 ErrMax= 4.54D-04  0.00D+00 EMaxC= 1.00D-01 BMatC= 7.15D-06 BMatP= 1.30D-05
 IDIUse=3 WtCom= 9.95D-01 WtEn= 4.54D-03
 Coeff-Com: -0.744D-03 0.242D-04 0.243D-03-0.215D-04-0.569D-03 0.116D-02
 Coeff-Com: -0.233D-02 0.126D-01 0.169D-02-0.144D+00-0.257D+00 0.273D+00
 Coeff-Com:  0.112D+01
 Coeff-En:   0.000D+00 0.000D+00 0.000D+00 0.000D+00 0.000D+00 0.000D+00
 Coeff-En:   0.000D+00 0.000D+00 0.000D+00 0.000D+00 0.000D+00 0.000D+00
 Coeff-En:   0.100D+01
 Coeff:     -0.740D-03 0.241D-04 0.242D-03-0.214D-04-0.567D-03 0.116D-02
 Coeff:     -0.232D-02 0.125D-01 0.168D-02-0.143D+00-0.256D+00 0.272D+00
 Coeff:      0.111D+01
 Gap=     0.035 Goal=   None    Shift=    0.000
 RMSDP=1.13D-04 MaxDP=1.28D-03 DE=-1.47D-05 OVMax= 5.89D-03

 Cycle  14  Pass 0  IDiag  1:
 E= -117.924282795399     Delta-E=       -0.000017495956 Rises=F Damp=F
 DIIS: error= 1.34D-04 at cycle  14 NSaved=  14.
 NSaved=14 IEnMin=14 EnMin= -117.924282795399     IErMin=14 ErrMin= 1.34D-04
 ErrMax= 1.34D-04  0.00D+00 EMaxC= 1.00D-01 BMatC= 5.00D-07 BMatP= 7.15D-06
 IDIUse=3 WtCom= 9.99D-01 WtEn= 1.34D-03
 Coeff-Com:  0.716D-04 0.939D-04-0.522D-04 0.291D-04 0.984D-03-0.624D-03
 Coeff-Com: -0.170D-02 0.704D-02 0.223D-02-0.261D-01-0.649D-01-0.907D-01
 Coeff-Com:  0.157D+00 0.102D+01
 Coeff-En:   0.000D+00 0.000D+00 0.000D+00 0.000D+00 0.000D+00 0.000D+00
 Coeff-En:   0.000D+00 0.000D+00 0.000D+00 0.000D+00 0.000D+00 0.000D+00
 Coeff-En:   0.000D+00 0.100D+01
 Coeff:      0.715D-04 0.938D-04-0.521D-04 0.290D-04 0.983D-03-0.623D-03
 Coeff:     -0.170D-02 0.703D-02 0.223D-02-0.260D-01-0.648D-01-0.906D-01
 Coeff:      0.157D+00 0.102D+01
 Gap=     0.035 Goal=   None    Shift=    0.000
 RMSDP=6.51D-05 MaxDP=6.81D-04 DE=-1.75D-05 OVMax= 3.71D-03

 Cycle  15  Pass 0  IDiag  1:
 E= -117.924285178441     Delta-E=       -0.000002383042 Rises=F Damp=F
 DIIS: error= 8.39D-05 at cycle  15 NSaved=  15.
 NSaved=15 IEnMin=15 EnMin= -117.924285178441     IErMin=15 ErrMin= 8.39D-05
 ErrMax= 8.39D-05  0.00D+00 EMaxC= 1.00D-01 BMatC= 2.36D-07 BMatP= 5.00D-07
 IDIUse=1 WtCom= 1.00D+00 WtEn= 0.00D+00
 Coeff-Com:  0.247D-05 0.437D-03-0.183D-03-0.176D-05 0.116D-02-0.487D-03
 Coeff-Com: -0.409D-03 0.119D-02-0.240D-02 0.667D-02 0.210D-01-0.832D-01
 Coeff-Com: -0.226D+00 0.308D+00 0.974D+00
 Coeff:      0.247D-05 0.437D-03-0.183D-03-0.176D-05 0.116D-02-0.487D-03
 Coeff:     -0.409D-03 0.119D-02-0.240D-02 0.667D-02 0.210D-01-0.832D-01
 Coeff:     -0.226D+00 0.308D+00 0.974D+00
 Gap=     0.035 Goal=   None    Shift=    0.000
 RMSDP=5.12D-05 MaxDP=5.73D-04 DE=-2.38D-06 OVMax= 2.92D-03

 Cycle  16  Pass 0  IDiag  1:
 E= -117.924286366686     Delta-E=       -0.000001188245 Rises=F Damp=F
 DIIS: error= 4.95D-05 at cycle  16 NSaved=  16.
 NSaved=16 IEnMin=16 EnMin= -117.924286366686     IErMin=16 ErrMin= 4.95D-05
 ErrMax= 4.95D-05  0.00D+00 EMaxC= 1.00D-01 BMatC= 8.54D-08 BMatP= 2.36D-07
 IDIUse=1 WtCom= 1.00D+00 WtEn= 0.00D+00
 Coeff-Com: -0.303D-03 0.218D-03-0.224D-04 0.524D-04 0.405D-03 0.700D-04
 Coeff-Com:  0.116D-02-0.162D-02-0.299D-02-0.407D-02 0.159D-01-0.182D-01
 Coeff-Com: -0.108D+00-0.223D+00 0.172D+00 0.117D+01
 Coeff:     -0.303D-03 0.218D-03-0.224D-04 0.524D-04 0.405D-03 0.700D-04
 Coeff:      0.116D-02-0.162D-02-0.299D-02-0.407D-02 0.159D-01-0.182D-01
 Coeff:     -0.108D+00-0.223D+00 0.172D+00 0.117D+01
 Gap=     0.035 Goal=   None    Shift=    0.000
 RMSDP=4.84D-05 MaxDP=4.98D-04 DE=-1.19D-06 OVMax= 2.85D-03

 Cycle  17  Pass 0  IDiag  1:
 E= -117.924286832460     Delta-E=       -0.000000465774 Rises=F Damp=F
 DIIS: error= 1.44D-05 at cycle  17 NSaved=  17.
 NSaved=17 IEnMin=17 EnMin= -117.924286832460     IErMin=17 ErrMin= 1.44D-05
 ErrMax= 1.44D-05  0.00D+00 EMaxC= 1.00D-01 BMatC= 1.39D-08 BMatP= 8.54D-08
 IDIUse=1 WtCom= 1.00D+00 WtEn= 0.00D+00
 Coeff-Com: -0.105D-03 0.757D-04-0.817D-05 0.175D-05-0.206D-04 0.102D-03
 Coeff-Com:  0.272D-03 0.530D-03 0.126D-02-0.828D-02-0.110D-01 0.125D-01
 Coeff-Com:  0.590D-01 0.261D-01-0.228D+00-0.923D-01 0.124D+01
 Coeff:     -0.105D-03 0.757D-04-0.817D-05 0.175D-05-0.206D-04 0.102D-03
 Coeff:      0.272D-03 0.530D-03 0.126D-02-0.828D-02-0.110D-01 0.125D-01
 Coeff:      0.590D-01 0.261D-01-0.228D+00-0.923D-01 0.124D+01
 Gap=     0.035 Goal=   None    Shift=    0.000
 RMSDP=1.21D-05 MaxDP=1.10D-04 DE=-4.66D-07 OVMax= 6.51D-04

 Cycle  18  Pass 0  IDiag  1:
 E= -117.924286889035     Delta-E=       -0.000000056575 Rises=F Damp=F
 DIIS: error= 9.01D-06 at cycle  18 NSaved=  18.
 NSaved=18 IEnMin=18 EnMin= -117.924286889035     IErMin=18 ErrMin= 9.01D-06
 ErrMax= 9.01D-06  0.00D+00 EMaxC= 1.00D-01 BMatC= 2.21D-09 BMatP= 1.39D-08
 IDIUse=1 WtCom= 1.00D+00 WtEn= 0.00D+00
 Coeff-Com:  0.185D-04-0.158D-04-0.181D-05-0.476D-05-0.881D-04 0.400D-05
 Coeff-Com: -0.120D-03 0.664D-03 0.160D-02 0.675D-05-0.208D-02 0.304D-02
 Coeff-Com:  0.235D-01 0.942D-01-0.608D-01-0.377D+00 0.247D+00 0.107D+01
 Coeff:      0.185D-04-0.158D-04-0.181D-05-0.476D-05-0.881D-04 0.400D-05
 Coeff:     -0.120D-03 0.664D-03 0.160D-02 0.675D-05-0.208D-02 0.304D-02
 Coeff:      0.235D-01 0.942D-01-0.608D-01-0.377D+00 0.247D+00 0.107D+01
 Gap=     0.035 Goal=   None    Shift=    0.000
 RMSDP=4.81D-06 MaxDP=3.14D-05 DE=-5.66D-08 OVMax= 2.07D-04

 Initial convergence to 1.0D-05 achieved.  Increase integral accuracy.
 Cycle  19  Pass 1  IDiag  1:
 E= -117.924286988336     Delta-E=       -0.000000099301 Rises=F Damp=F
 DIIS: error= 7.74D-06 at cycle   1 NSaved=   1.
 NSaved= 1 IEnMin= 1 EnMin= -117.924286988336     IErMin= 1 ErrMin= 7.74D-06
 ErrMax= 7.74D-06  0.00D+00 EMaxC= 1.00D-01 BMatC= 3.25D-09 BMatP= 3.25D-09
 IDIUse=1 WtCom= 1.00D+00 WtEn= 0.00D+00
 Coeff-Com:  0.100D+01
 Coeff:      0.100D+01
 Gap=     0.035 Goal=   None    Shift=    0.000
 RMSDP=4.81D-06 MaxDP=3.14D-05 DE=-9.93D-08 OVMax= 1.11D-04

 Cycle  20  Pass 1  IDiag  1:
 E= -117.924286989657     Delta-E=       -0.000000001321 Rises=F Damp=F
 DIIS: error= 9.64D-06 at cycle   2 NSaved=   2.
 NSaved= 2 IEnMin= 2 EnMin= -117.924286989657     IErMin= 1 ErrMin= 7.74D-06
 ErrMax= 9.64D-06  0.00D+00 EMaxC= 1.00D-01 BMatC= 3.98D-09 BMatP= 3.25D-09
 IDIUse=1 WtCom= 1.00D+00 WtEn= 0.00D+00
 Coeff-Com:  0.545D+00 0.455D+00
 Coeff:      0.545D+00 0.455D+00
 Gap=     0.035 Goal=   None    Shift=    0.000
 RMSDP=3.98D-06 MaxDP=6.06D-05 DE=-1.32D-09 OVMax= 2.06D-04

 Cycle  21  Pass 1  IDiag  1:
 E= -117.924286959889     Delta-E=        0.000000029769 Rises=F Damp=F
 DIIS: error= 2.49D-05 at cycle   3 NSaved=   3.
 NSaved= 3 IEnMin= 2 EnMin= -117.924286989657     IErMin= 1 ErrMin= 7.74D-06
 ErrMax= 2.49D-05  0.00D+00 EMaxC= 1.00D-01 BMatC= 2.46D-08 BMatP= 3.25D-09
 IDIUse=1 WtCom= 1.00D+00 WtEn= 0.00D+00
 Coeff-Com:  0.377D-01 0.692D+00 0.271D+00
 Coeff:      0.377D-01 0.692D+00 0.271D+00
 Gap=     0.035 Goal=   None    Shift=    0.000
 RMSDP=2.80D-06 MaxDP=3.10D-05 DE= 2.98D-08 OVMax= 1.28D-04

 Cycle  22  Pass 1  IDiag  1:
 E= -117.924286991277     Delta-E=       -0.000000031389 Rises=F Damp=F
 DIIS: error= 7.77D-06 at cycle   4 NSaved=   4.
 NSaved= 4 IEnMin= 4 EnMin= -117.924286991277     IErMin= 1 ErrMin= 7.74D-06
 ErrMax= 7.77D-06  0.00D+00 EMaxC= 1.00D-01 BMatC= 2.97D-09 BMatP= 3.25D-09
 IDIUse=1 WtCom= 1.00D+00 WtEn= 0.00D+00
 Coeff-Com: -0.107D-01 0.590D+00 0.245D+00 0.176D+00
 Coeff:     -0.107D-01 0.590D+00 0.245D+00 0.176D+00
 Gap=     0.035 Goal=   None    Shift=    0.000
 RMSDP=1.34D-06 MaxDP=2.66D-05 DE=-3.14D-08 OVMax= 6.38D-05

 Cycle  23  Pass 1  IDiag  1:
 E= -117.924286997442     Delta-E=       -0.000000006165 Rises=F Damp=F
 DIIS: error= 8.57D-07 at cycle   5 NSaved=   5.
 NSaved= 5 IEnMin= 5 EnMin= -117.924286997442     IErMin= 5 ErrMin= 8.57D-07
 ErrMax= 8.57D-07  0.00D+00 EMaxC= 1.00D-01 BMatC= 2.79D-11 BMatP= 2.97D-09
 IDIUse=1 WtCom= 1.00D+00 WtEn= 0.00D+00
 Coeff-Com: -0.156D-01 0.174D+00 0.665D-01 0.695D-01 0.705D+00
 Coeff:     -0.156D-01 0.174D+00 0.665D-01 0.695D-01 0.705D+00
 Gap=     0.035 Goal=   None    Shift=    0.000
 RMSDP=5.87D-07 MaxDP=5.81D-06 DE=-6.16D-09 OVMax= 3.00D-05

 Cycle  24  Pass 1  IDiag  1:
 E= -117.924286997584     Delta-E=       -0.000000000142 Rises=F Damp=F
 DIIS: error= 1.20D-06 at cycle   6 NSaved=   6.
 NSaved= 6 IEnMin= 6 EnMin= -117.924286997584     IErMin= 5 ErrMin= 8.57D-07
 ErrMax= 1.20D-06  0.00D+00 EMaxC= 1.00D-01 BMatC= 5.95D-11 BMatP= 2.79D-11
 IDIUse=1 WtCom= 1.00D+00 WtEn= 0.00D+00
 Coeff-Com: -0.103D-01-0.129D-01-0.746D-02-0.549D-02 0.651D+00 0.385D+00
 Coeff:     -0.103D-01-0.129D-01-0.746D-02-0.549D-02 0.651D+00 0.385D+00
 Gap=     0.035 Goal=   None    Shift=    0.000
 RMSDP=3.53D-07 MaxDP=5.65D-06 DE=-1.42D-10 OVMax= 1.66D-05

 Cycle  25  Pass 1  IDiag  1:
 E= -117.924286997818     Delta-E=       -0.000000000234 Rises=F Damp=F
 DIIS: error= 5.45D-07 at cycle   7 NSaved=   7.
 NSaved= 7 IEnMin= 7 EnMin= -117.924286997818     IErMin= 7 ErrMin= 5.45D-07
 ErrMax= 5.45D-07  0.00D+00 EMaxC= 1.00D-01 BMatC= 1.26D-11 BMatP= 2.79D-11
 IDIUse=1 WtCom= 1.00D+00 WtEn= 0.00D+00
 Coeff-Com:  0.105D-04-0.836D-01-0.353D-01-0.423D-01 0.320D+00 0.318D+00
 Coeff-Com:  0.523D+00
 Coeff:      0.105D-04-0.836D-01-0.353D-01-0.423D-01 0.320D+00 0.318D+00
 Coeff:      0.523D+00
 Gap=     0.035 Goal=   None    Shift=    0.000
 RMSDP=3.24D-07 MaxDP=3.64D-06 DE=-2.34D-10 OVMax= 1.48D-05

 Cycle  26  Pass 1  IDiag  1:
 E= -117.924286997878     Delta-E=       -0.000000000060 Rises=F Damp=F
 DIIS: error= 5.88D-07 at cycle   8 NSaved=   8.
 NSaved= 8 IEnMin= 8 EnMin= -117.924286997878     IErMin= 7 ErrMin= 5.45D-07
 ErrMax= 5.88D-07  0.00D+00 EMaxC= 1.00D-01 BMatC= 1.59D-11 BMatP= 1.26D-11
 IDIUse=1 WtCom= 1.00D+00 WtEn= 0.00D+00
 Coeff-Com:  0.709D-02-0.109D+00-0.459D-01-0.553D-01-0.980D-01 0.269D-01
 Coeff-Com:  0.716D+00 0.558D+00
 Coeff:      0.709D-02-0.109D+00-0.459D-01-0.553D-01-0.980D-01 0.269D-01
 Coeff:      0.716D+00 0.558D+00
 Gap=     0.035 Goal=   None    Shift=    0.000
 RMSDP=3.85D-07 MaxDP=3.33D-06 DE=-6.01D-11 OVMax= 1.86D-05

 Cycle  27  Pass 1  IDiag  1:
 E= -117.924286997965     Delta-E=       -0.000000000087 Rises=F Damp=F
 DIIS: error= 3.46D-07 at cycle   9 NSaved=   9.
 NSaved= 9 IEnMin= 9 EnMin= -117.924286997965     IErMin= 9 ErrMin= 3.46D-07
 ErrMax= 3.46D-07  0.00D+00 EMaxC= 1.00D-01 BMatC= 4.65D-12 BMatP= 1.26D-11
 IDIUse=1 WtCom= 1.00D+00 WtEn= 0.00D+00
 Coeff-Com:  0.596D-02-0.722D-01-0.283D-01-0.381D-01-0.169D+00-0.656D-01
 Coeff-Com:  0.513D+00 0.473D+00 0.381D+00
 Coeff:      0.596D-02-0.722D-01-0.283D-01-0.381D-01-0.169D+00-0.656D-01
 Coeff:      0.513D+00 0.473D+00 0.381D+00
 Gap=     0.035 Goal=   None    Shift=    0.000
 RMSDP=1.25D-07 MaxDP=9.87D-07 DE=-8.69D-11 OVMax= 5.80D-06

 Cycle  28  Pass 1  IDiag  1:
 E= -117.924286997981     Delta-E=       -0.000000000015 Rises=F Damp=F
 DIIS: error= 1.12D-07 at cycle  10 NSaved=  10.
 NSaved=10 IEnMin=10 EnMin= -117.924286997981     IErMin=10 ErrMin= 1.12D-07
 ErrMax= 1.12D-07  0.00D+00 EMaxC= 1.00D-01 BMatC= 6.21D-13 BMatP= 4.65D-12
 IDIUse=1 WtCom= 1.00D+00 WtEn= 0.00D+00
 Coeff-Com: -0.197D-03 0.127D-01 0.106D-01 0.136D-01-0.175D-01-0.299D-01
 Coeff-Com: -0.129D+00-0.281D-01 0.100D+00 0.107D+01
 Coeff:     -0.197D-03 0.127D-01 0.106D-01 0.136D-01-0.175D-01-0.299D-01
 Coeff:     -0.129D+00-0.281D-01 0.100D+00 0.107D+01
 Gap=     0.035 Goal=   None    Shift=    0.000
 RMSDP=1.01D-07 MaxDP=8.38D-07 DE=-1.54D-11 OVMax= 4.88D-06

 Cycle  29  Pass 1  IDiag  1:
 E= -117.924286997987     Delta-E=       -0.000000000006 Rises=F Damp=F
 DIIS: error= 8.42D-08 at cycle  11 NSaved=  11.
 NSaved=11 IEnMin=11 EnMin= -117.924286997987     IErMin=11 ErrMin= 8.42D-08
 ErrMax= 8.42D-08  0.00D+00 EMaxC= 1.00D-01 BMatC= 2.14D-13 BMatP= 6.21D-13
 IDIUse=1 WtCom= 1.00D+00 WtEn= 0.00D+00
 Coeff-Com: -0.698D-03 0.117D-01 0.850D-02 0.127D-01 0.138D-01-0.251D-02
 Coeff-Com: -0.120D+00-0.631D-01-0.307D-01 0.420D+00 0.750D+00
 Coeff:     -0.698D-03 0.117D-01 0.850D-02 0.127D-01 0.138D-01-0.251D-02
 Coeff:     -0.120D+00-0.631D-01-0.307D-01 0.420D+00 0.750D+00
 Gap=     0.035 Goal=   None    Shift=    0.000
 RMSDP=3.68D-08 MaxDP=3.79D-07 DE=-6.31D-12 OVMax= 2.07D-06

 Cycle  30  Pass 1  IDiag  1:
 E= -117.924286997988     Delta-E=       -0.000000000001 Rises=F Damp=F
 DIIS: error= 5.06D-08 at cycle  12 NSaved=  12.
 NSaved=12 IEnMin=12 EnMin= -117.924286997988     IErMin=12 ErrMin= 5.06D-08
 ErrMax= 5.06D-08  0.00D+00 EMaxC= 1.00D-01 BMatC= 1.27D-13 BMatP= 2.14D-13
 IDIUse=1 WtCom= 1.00D+00 WtEn= 0.00D+00
 Coeff-Com: -0.518D-03 0.563D-02 0.447D-02 0.799D-02 0.186D-01 0.105D-01
 Coeff-Com: -0.583D-01-0.430D-01-0.606D-01 0.134D-01 0.524D+00 0.577D+00
 Coeff:     -0.518D-03 0.563D-02 0.447D-02 0.799D-02 0.186D-01 0.105D-01
 Coeff:     -0.583D-01-0.430D-01-0.606D-01 0.134D-01 0.524D+00 0.577D+00
 Gap=     0.035 Goal=   None    Shift=    0.000
 RMSDP=2.87D-08 MaxDP=2.59D-07 DE=-1.39D-12 OVMax= 1.67D-06

 Cycle  31  Pass 1  IDiag  1:
 E= -117.924286997986     Delta-E=        0.000000000002 Rises=F Damp=F
 DIIS: error= 5.98D-08 at cycle  13 NSaved=  13.
 NSaved=13 IEnMin=12 EnMin= -117.924286997988     IErMin=12 ErrMin= 5.06D-08
 ErrMax= 5.98D-08  0.00D+00 EMaxC= 1.00D-01 BMatC= 1.32D-13 BMatP= 1.27D-13
 IDIUse=1 WtCom= 1.00D+00 WtEn= 0.00D+00
 Coeff-Com:  0.245D-03-0.679D-02-0.199D-02-0.177D-02 0.450D-02 0.152D-01
 Coeff-Com:  0.340D-01 0.103D-01-0.348D-01-0.303D+00-0.266D+00 0.719D+00
 Coeff-Com:  0.831D+00
 Coeff:      0.245D-03-0.679D-02-0.199D-02-0.177D-02 0.450D-02 0.152D-01
 Coeff:      0.340D-01 0.103D-01-0.348D-01-0.303D+00-0.266D+00 0.719D+00
 Coeff:      0.831D+00
 Gap=     0.035 Goal=   None    Shift=    0.000
 RMSDP=4.06D-08 MaxDP=4.58D-07 DE= 1.88D-12 OVMax= 2.37D-06

 Cycle  32  Pass 1  IDiag  1:
 E= -117.924286997989     Delta-E=       -0.000000000003 Rises=F Damp=F
 DIIS: error= 3.88D-08 at cycle  14 NSaved=  14.
 NSaved=14 IEnMin=14 EnMin= -117.924286997989     IErMin=14 ErrMin= 3.88D-08
 ErrMax= 3.88D-08  0.00D+00 EMaxC= 1.00D-01 BMatC= 4.62D-14 BMatP= 1.27D-13
 IDIUse=1 WtCom= 1.00D+00 WtEn= 0.00D+00
 Coeff-Com:  0.296D-03-0.493D-02-0.131D-02-0.310D-02-0.587D-02 0.212D-03
 Coeff-Com:  0.255D-01 0.250D-01 0.190D-01-0.311D-01-0.384D+00-0.645D-02
 Coeff-Com: -0.993D-01 0.147D+01
 Coeff:      0.296D-03-0.493D-02-0.131D-02-0.310D-02-0.587D-02 0.212D-03
 Coeff:      0.255D-01 0.250D-01 0.190D-01-0.311D-01-0.384D+00-0.645D-02
 Coeff:     -0.993D-01 0.147D+01
 Gap=     0.035 Goal=   None    Shift=    0.000
 RMSDP=3.72D-08 MaxDP=3.97D-07 DE=-2.50D-12 OVMax= 2.16D-06

 Cycle  33  Pass 1  IDiag  1:
 E= -117.924286997988     Delta-E=        0.000000000001 Rises=F Damp=F
 DIIS: error= 9.86D-09 at cycle  15 NSaved=  15.
 NSaved=15 IEnMin=14 EnMin= -117.924286997989     IErMin=15 ErrMin= 9.86D-09
 ErrMax= 9.86D-09  0.00D+00 EMaxC= 1.00D-01 BMatC= 2.90D-15 BMatP= 4.62D-14
 IDIUse=1 WtCom= 1.00D+00 WtEn= 0.00D+00
 Coeff-Com:  0.117D-05 0.324D-03 0.390D-03-0.448D-05-0.122D-03-0.213D-02
 Coeff-Com: -0.670D-02 0.307D-02 0.388D-02 0.543D-01-0.807D-02-0.886D-01
 Coeff-Com: -0.221D+00 0.273D+00 0.992D+00
 Coeff:      0.117D-05 0.324D-03 0.390D-03-0.448D-05-0.122D-03-0.213D-02
 Coeff:     -0.670D-02 0.307D-02 0.388D-02 0.543D-01-0.807D-02-0.886D-01
 Coeff:     -0.221D+00 0.273D+00 0.992D+00
 Gap=     0.035 Goal=   None    Shift=    0.000
 RMSDP=7.94D-09 MaxDP=8.07D-08 DE= 1.05D-12 OVMax= 4.60D-07

 SCF Done:  E(RB3LYP) =  -117.924286998     A.U. after   33 cycles
            NFock= 33  Conv=0.79D-08     -V/T= 2.0181
 KE= 1.158276001499D+02 PE=-3.939788108398D+02 EE= 9.846305848566D+01
 Leave Link  502 at Thu Mar 19 17:00:35 2026, MaxMem=   536870912 cpu:         8.0
 (Enter C:\G09W\l601.exe)
 Copying SCF densities to generalized density rwf, IOpCl= 0 IROHF=0.

 **********************************************************************

            Population analysis using the SCF density.

 **********************************************************************

 Orbital symmetries:
       Occupied  (A) (A) (A) (A) (A) (A) (A) (A) (A) (A) (A) (A)
                 (A)
       Virtual   (A) (A) (A) (A) (A) (A) (A) (A) (A) (A) (A) (A)
                 (A) (A) (A) (A) (A) (A) (A) (A) (A) (A) (A) (A)
                 (A) (A) (A) (A) (A) (A) (A) (A) (A) (A) (A) (A)
                 (A) (A) (A) (A) (A) (A) (A) (A) (A) (A) (A) (A)
 The electronic state is 1-A.
 Alpha  occ. eigenvalues --  -10.38360 -10.38024 -10.37997  -0.74760  -0.60146
 Alpha  occ. eigenvalues --   -0.57673  -0.43843  -0.40864  -0.37630  -0.31223
 Alpha  occ. eigenvalues --   -0.26975  -0.25917  -0.24345
 Alpha virt. eigenvalues --   -0.20874  -0.18424  -0.14273  -0.13897  -0.12809
 Alpha virt. eigenvalues --   -0.09170  -0.02573   0.00220   0.01617   0.05263
 Alpha virt. eigenvalues --    0.47726   0.50824   0.51669   0.52097   0.54569
 Alpha virt. eigenvalues --    0.55247   0.58082   0.58288   0.66230   0.72675
 Alpha virt. eigenvalues --    0.76155   0.78549   0.80123   0.83206   0.84227
 Alpha virt. eigenvalues --    0.88001   0.91621   0.95002   0.99853   1.11929
 Alpha virt. eigenvalues --    1.52592   1.58648   1.59806   1.61182   1.62876
 Alpha virt. eigenvalues --    1.63187   1.63514   1.66120   1.67380   1.69288
 Alpha virt. eigenvalues --    1.71992   1.75333   1.76026   1.86895   1.98962
 Alpha virt. eigenvalues --    3.83643   3.86198   4.02367
          Condensed to atoms (all electrons):
               1          2          3          4          5          6
     1  C    5.975408   0.041958   0.016764   0.023435  -0.011249  -0.012256
     2  C    0.041958   5.786157   0.045453   0.019346  -0.015047  -0.000178
     3  C    0.016764   0.045453   5.845730   0.002343   0.000251  -0.026961
     4  H    0.023435   0.019346   0.002343   0.658176   0.185818   0.000207
     5  H   -0.011249  -0.015047   0.000251   0.185818   0.935694   0.000004
     6  H   -0.012256  -0.000178  -0.026961   0.000207   0.000004   0.887788
     7  H   -0.029893   0.094084   0.049648   0.001097   0.000414  -0.001655
     8  H    0.063302  -0.004578   0.071109   0.002100   0.000149   0.139675
     9  H   -0.000062   0.073783   0.065760  -0.003884   0.000326   0.002061
    10  H   -0.007674   0.004620  -0.038964  -0.002310  -0.000977   0.029309
    11  H    0.088784  -0.013435   0.013900   0.002397   0.000271  -0.000749
               7          8          9         10         11
     1  C   -0.029893   0.063302  -0.000062  -0.007674   0.088784
     2  C    0.094084  -0.004578   0.073783   0.004620  -0.013435
     3  C    0.049648   0.071109   0.065760  -0.038964   0.013900
     4  H    0.001097   0.002100  -0.003884  -0.002310   0.002397
     5  H    0.000414   0.000149   0.000326  -0.000977   0.000271
     6  H   -0.001655   0.139675   0.002061   0.029309  -0.000749
     7  H    0.757981  -0.028859  -0.028793   0.103106   0.004961
     8  H   -0.028859   0.666137  -0.011254  -0.000209  -0.015733
     9  H   -0.028793  -0.011254   0.719893   0.004500   0.040204
    10  H    0.103106  -0.000209   0.004500   0.963979   0.000901
    11  H    0.004961  -0.015733   0.040204   0.000901   0.928418
 Mulliken charges:
               1
     1  C   -0.148517
     2  C   -0.032164
     3  C   -0.045032
     4  H    0.111275
     5  H   -0.095653
     6  H   -0.017245
     7  H    0.077908
     8  H    0.118161
     9  H    0.137466
    10  H   -0.056280
    11  H   -0.049920
 Sum of Mulliken charges =   0.00000
 Mulliken charges with hydrogens summed into heavy atoms:
               1
     1  C   -0.120934
     2  C    0.045745
     3  C    0.075189
 Electronic spatial extent (au):  <R**2>=            350.4433
 Charge=              0.0000 electrons
 Dipole moment (field-independent basis, Debye):
    X=             -0.9721    Y=             -1.1611    Z=             -0.0756  Tot=              1.5163
 Quadrupole moment (field-independent basis, Debye-Ang):
   XX=            -30.8558   YY=            -30.7984   ZZ=            -30.0050
   XY=             -1.6968   XZ=             -0.8519   YZ=              0.0718
 Traceless Quadrupole moment (field-independent basis, Debye-Ang):
   XX=             -0.3027   YY=             -0.2454   ZZ=              0.5481
   XY=             -1.6968   XZ=             -0.8519   YZ=              0.0718
 Octapole moment (field-independent basis, Debye-Ang**2):
  XXX=            -12.3411  YYY=             -7.7263  ZZZ=             -3.5395  XYY=             -1.8364
  XXY=             -6.6675  XXZ=              1.6530  XZZ=             -0.0754  YZZ=             -3.8350
  YYZ=              0.6681  XYZ=              0.8281
 Hexadecapole moment (field-independent basis, Debye-Ang**3):
 XXXX=           -352.9289 YYYY=           -197.5537 ZZZZ=           -141.9205 XXXY=            -17.2488
 XXXZ=             -4.2056 YYYX=             -5.0404 YYYZ=             -1.4386 ZZZX=              1.4450
 ZZZY=             -1.7872 XXYY=            -88.9469 XXZZ=            -76.8576 YYZZ=            -55.6299
 XXYZ=             -0.6646 YYXZ=             -0.2881 ZZXY=              0.0945
 N-N= 6.176386520618D+01 E-N=-3.939788109473D+02  KE= 1.158276001499D+02
 No NMR shielding tensors so no spin-rotation constants.
 Leave Link  601 at Thu Mar 19 17:00:35 2026, MaxMem=   536870912 cpu:         0.0
 (Enter C:\G09W\l701.exe)
 Compute integral first derivatives.
 ... and contract with generalized density number  0.
 Leave Link  701 at Thu Mar 19 17:00:36 2026, MaxMem=   536870912 cpu:         0.0
 (Enter C:\G09W\l702.exe)
 L702 exits ... SP integral derivatives will be done elsewhere.
 Leave Link  702 at Thu Mar 19 17:00:36 2026, MaxMem=   536870912 cpu:         0.0
 (Enter C:\G09W\l703.exe)
 Compute integral first derivatives, UseDBF=F ICtDFT=           0.
 Integral derivatives from FoFJK, PRISM(SPDF).
 Calling FoFJK, ICntrl=      2127 FMM=F ISym2X=0 I1Cent= 0 IOpClX= 0 NMat=1 NMatS=1 NMatT=0.
 FoFJK:  IHMeth= 1 ICntrl=    2127 DoSepK=F KAlg= 0 I1Cent=   0 FoldK=F
 IRaf=         0 NMat=   1 IRICut=       1 DoRegI=T DoRafI=F ISym2E= 0.
 FoFCou: FMM=F IPFlag=           0 FMFlag=      100000 FMFlg1=         800
         NFxFlg=           0 DoJE=F BraDBF=F KetDBF=F FulRan=T
         wScrn=  0.000000 ICntrl=    2127 IOpCl=  0 I1Cent=           0 NGrid=           0
         NMat0=    1 NMatS0=      1 NMatT0=    0 NMatD0=    1 NMtDS0=    0 NMtDT0=    0
 Symmetry not used in FoFCou.
 Leave Link  703 at Thu Mar 19 17:00:37 2026, MaxMem=   536870912 cpu:         0.0
 (Enter C:\G09W\l716.exe)
 Dipole        =-3.82470854D-01-4.56831430D-01-2.97556506D-02
 ***** Axes restored to original set *****
 -------------------------------------------------------------------
 Center     Atomic                   Forces (Hartrees/Bohr)
 Number     Number              X              Y              Z
 -------------------------------------------------------------------
      1        6           0.014751049    0.043720843    0.001115072
      2        6          -0.027632112    0.060638270   -0.076364858
      3        6          -0.044695181   -0.053386582    0.034698329
      4        1          -0.024133221   -0.007827055    0.032373476
      5        1           0.024551826    0.025921677   -0.028685965
      6        1           0.001813219   -0.018063570    0.028909189
      7        1           0.006581062   -0.012712473    0.012703662
      8        1           0.012784525   -0.000216036   -0.002746827
      9        1           0.013452524   -0.014713147   -0.008352861
     10        1           0.006802648    0.009784158    0.013492866
     11        1           0.015723662   -0.033146085   -0.007142084
 -------------------------------------------------------------------
 Cartesian Forces:  Max     0.076364858 RMS     0.028141636
 Leave Link  716 at Thu Mar 19 17:00:38 2026, MaxMem=   536870912 cpu:         0.0
 (Enter C:\G09W\l103.exe)

 GradGradGradGradGradGradGradGradGradGradGradGradGradGradGradGradGradGrad
 Berny optimization.
 FormGI is forming the generalized inverse of G from B-inverse, IUseBI=4.
 Internal  Forces:  Max     0.048614354 RMS     0.017174735
 Search for a local minimum.
 Step number   1 out of a maximum of   73
 All quantities printed in internal units (Hartrees-Bohrs-Radians)
 RMS Force = .17175D-01 SwitMx=.10000D-02 MixMth= 1
 Mixed Optimization -- RFO/linear search
 Second derivative matrix not updated -- first step.
 ITU=  0
     Eigenvalues ---    0.00230   0.00382   0.00508   0.00938   0.01800
     Eigenvalues ---    0.02296   0.02793   0.03216   0.04393   0.04581
     Eigenvalues ---    0.04755   0.05103   0.06289   0.06955   0.07065
     Eigenvalues ---    0.07616   0.07803   0.08267   0.08603   0.08784
     Eigenvalues ---    0.09850   0.10877   0.12393   0.13057   0.13781
     Eigenvalues ---    0.15604   0.16000
 RFO step:  Lambda=-1.07254319D-01 EMin= 2.30000000D-03
 Linear search not attempted -- first point.
 Maximum step size (   0.300) exceeded in Quadratic search.
    -- Step size scaled by   0.416
 Iteration  1 RMS(Cart)=  0.05371040 RMS(Int)=  0.00113657
 Iteration  2 RMS(Cart)=  0.00129875 RMS(Int)=  0.00048069
 Iteration  3 RMS(Cart)=  0.00000155 RMS(Int)=  0.00048068
 Iteration  4 RMS(Cart)=  0.00000000 RMS(Int)=  0.00048068
 ITry= 1 IFail=0 DXMaxC= 1.95D-01 DCOld= 1.00D+10 DXMaxT= 3.00D-01 DXLimC= 3.00D+00 Rises=F
 Variable       Old X    -DE/DX   Delta X   Delta X   Delta X     New X
                                 (Linear)    (Quad)   (Total)
    R1        3.16349  -0.01488   0.00000  -0.03338  -0.03338   3.13011
    R2        3.08184  -0.03106   0.00000  -0.06765  -0.06780   3.01404
    R3        3.18019  -0.03947   0.00000  -0.08806  -0.08783   3.09236
    R4        3.16914  -0.04861   0.00000  -0.10917  -0.10931   3.05983
    R5        3.29709  -0.04337   0.00000  -0.09530  -0.09491   3.20218
    R6        3.36520  -0.01913   0.00000  -0.05417  -0.05435   3.31086
    R7        3.32820  -0.01830   0.00000  -0.04950  -0.04978   3.27842
    R8        3.17982  -0.03902   0.00000  -0.08350  -0.08337   3.09645
    R9        3.11365  -0.04574   0.00000  -0.12419  -0.12419   2.98945
   R10        3.07211  -0.03186   0.00000  -0.08554  -0.08554   2.98657
   R11        3.16089  -0.01800   0.00000  -0.04948  -0.04948   3.11141
   R12        3.53402  -0.02939   0.00000  -0.08762  -0.08762   3.44640
    A1        2.56288  -0.00076   0.00000   0.00128   0.00128   2.56416
    A2        1.71604  -0.01190   0.00000  -0.02751  -0.02764   1.68840
    A3        1.54821   0.00904   0.00000   0.01480   0.01499   1.56320
    A4        1.33888   0.02125   0.00000   0.04333   0.04414   1.38302
    A5        1.23243  -0.00053   0.00000  -0.00518  -0.00545   1.22698
    A6        1.31935   0.01237   0.00000   0.02582   0.02561   1.34496
    A7        1.47524   0.00374   0.00000   0.00534   0.00527   1.48051
    A8        2.33034  -0.00495   0.00000  -0.00770  -0.00770   2.32265
    A9        1.66421  -0.01574   0.00000  -0.02748  -0.02799   1.63622
   A10        2.18224   0.00529   0.00000   0.00609   0.00617   2.18841
   A11        2.26566   0.00420   0.00000   0.00515   0.00534   2.27100
   A12        1.56437  -0.00962   0.00000  -0.01195  -0.01227   1.55210
   A13        2.51212  -0.00455   0.00000  -0.01160  -0.01146   2.50066
   A14        2.14929   0.01384   0.00000   0.02280   0.02297   2.17225
   A15        1.42708  -0.00596   0.00000  -0.01060  -0.01040   1.41668
   A16        1.58157  -0.00020   0.00000   0.00574   0.00553   1.58710
   A17        1.22691  -0.01853   0.00000  -0.04532  -0.04551   1.18140
   A18        1.68433  -0.01048   0.00000  -0.02161  -0.02229   1.66204
   A19        2.62458  -0.02197   0.00000  -0.04663  -0.04720   2.57738
   A20        1.63222   0.00672   0.00000   0.00590   0.00458   1.63680
    D1       -2.73568   0.00095   0.00000   0.00015   0.00022  -2.73546
    D2        1.79353   0.00313   0.00000   0.01536   0.01529   1.80882
    D3       -1.47074   0.00321   0.00000   0.00633   0.00635  -1.46439
    D4        1.26792   0.00530   0.00000   0.01022   0.01018   1.27810
    D5        0.33224  -0.00500   0.00000  -0.02118  -0.02114   0.31111
    D6        3.07091  -0.00290   0.00000  -0.01729  -0.01731   3.05360
    D7        0.54124   0.01249   0.00000   0.04043   0.04140   0.58264
    D8        2.22520   0.00196   0.00000   0.01783   0.01805   2.24325
    D9       -2.42580   0.00937   0.00000   0.02254   0.02132  -2.40448
   D10       -2.03236   0.01336   0.00000   0.04077   0.04171  -1.99066
   D11       -0.34840   0.00283   0.00000   0.01817   0.01836  -0.33005
   D12        1.28378   0.01024   0.00000   0.02288   0.02163   1.30540
   D13        0.50309  -0.00797   0.00000  -0.01950  -0.01899   0.48410
   D14       -2.08569   0.00094   0.00000   0.00411   0.00427  -2.08143
   D15        1.02854   0.00517   0.00000   0.02273   0.02257   1.05111
   D16       -0.53671   0.00453   0.00000   0.01497   0.01467  -0.52204
   D17        1.36566  -0.01689   0.00000  -0.04726  -0.04513   1.32053
   D18       -2.08305   0.00796   0.00000   0.02190   0.02170  -2.06135
   D19        0.46449  -0.00165   0.00000  -0.00396  -0.00388   0.46061
   D20       -0.52629   0.00786   0.00000   0.02003   0.01974  -0.50656
   D21        2.02125  -0.00175   0.00000  -0.00583  -0.00585   2.01541
   D22        1.00367   0.01698   0.00000   0.04749   0.04725   1.05091
   D23       -1.85860   0.01995   0.00000   0.05371   0.05360  -1.80500
   D24       -0.33378   0.00513   0.00000   0.02184   0.02179  -0.31199
   D25        3.08714   0.00810   0.00000   0.02806   0.02815   3.11529
   D26       -0.92232  -0.00257   0.00000  -0.01218  -0.01208  -0.93440
   D27        0.50505  -0.00853   0.00000  -0.02207  -0.02193   0.48312
   D28       -2.14924   0.01607   0.00000   0.03294   0.03323  -2.11602
   D29        0.32309  -0.00419   0.00000  -0.01917  -0.01927   0.30381
   D30        1.75046  -0.01015   0.00000  -0.02907  -0.02912   1.72133
   D31       -0.90384   0.01446   0.00000   0.02594   0.02603  -0.87780
         Item               Value     Threshold  Converged?
 Maximum Force            0.048614     0.000450     NO 
 RMS     Force            0.017175     0.000300     NO 
 Maximum Displacement     0.194572     0.001800     NO 
 RMS     Displacement     0.053331     0.001200     NO 
 Predicted change in Energy=-4.119503D-02
 Lowest energy point so far.  Saving SCF results.
 GradGradGradGradGradGradGradGradGradGradGradGradGradGradGradGradGradGrad

 Leave Link  103 at Thu Mar 19 17:00:38 2026, MaxMem=   536870912 cpu:         0.0
 (Enter C:\G09W\l202.exe)
                          Input orientation:                          
 ---------------------------------------------------------------------
 Center     Atomic      Atomic             Coordinates (Angstroms)
 Number     Number       Type             X           Y           Z
 ---------------------------------------------------------------------
      1          6           0       -0.663716   -0.021361    0.134581
      2          6           0        1.126584   -0.714850    1.140459
      3          6           0        1.164296    1.411639   -0.100081
      4          1           0       -0.498658   -1.514781    0.831762
      5          1           0       -1.432325   -2.376241    1.774482
      6          1           0       -0.376496    1.232334   -2.590908
      7          1           0        1.206065   -0.309463   -0.425147
      8          1           0       -0.221157    0.960569   -1.041793
      9          1           0        0.328594    0.779887    1.159839
     10          1           0        0.553335   -1.170699   -1.667379
     11          1           0       -1.186522    1.722966    0.784185
 ---------------------------------------------------------------------
                    Distance matrix (angstroms):
                    1          2          3          4          5
     1  C    0.000000
     2  C    2.167463   0.000000
     3  C    2.334562   2.462178   0.000000
     4  H    1.656385   1.837552   3.492518   0.000000
     5  H    2.970774   3.116123   4.960288   1.581951   0.000000
     6  H    3.013724   4.469214   2.934349   4.390471   5.761355
     7  H    1.972911   1.619191   1.752029   2.436943   4.008870
     8  H    1.594960   3.063602   1.734867   3.116821   4.531294
     9  H    1.636408   1.694522   1.638568   2.461196   3.666029
    10  H    2.459523   2.901788   3.081909   2.733275   4.152419
    11  H    1.933387   3.379399   2.530849   3.310351   4.224287
                    6          7          8          9         10
     6  H    0.000000
     7  H    3.093890   0.000000
     8  H    1.580425   2.007534   0.000000
     9  H    3.843171   2.113958   2.276412   0.000000
    10  H    2.737162   1.646488   2.352339   3.442159   0.000000
    11  H    3.505441   3.364182   2.201675   1.823757   4.172597
                   11
    11  H    0.000000
 Stoichiometry    C3H8
 Framework group  C1[X(C3H8)]
 Deg. of freedom    27
 Full point group                 C1      NOp   1
 RotChk:  IX=0 Diff= 5.48D-02
 Largest Abelian subgroup         C1      NOp   1
 Largest concise Abelian subgroup C1      NOp   1
                         Standard orientation:                         
 ---------------------------------------------------------------------
 Center     Atomic      Atomic             Coordinates (Angstroms)
 Number     Number       Type             X           Y           Z
 ---------------------------------------------------------------------
      1          6           0        0.247292    0.934345   -0.225571
      2          6           0        1.049619   -1.039771    0.170703
      3          6           0       -1.367689   -0.751252   -0.197667
      4          1           0        1.810641    0.631717    0.230463
      5          1           0        3.208850    1.159658   -0.288050
      6          1           0       -2.364360    1.701263    1.068123
      7          1           0       -0.182981   -0.492762    1.066950
      8          1           0       -1.291028    0.936692    0.195692
      9          1           0        0.009769   -0.466125   -1.038034
     10          1           0       -0.083284    0.697589    2.200108
     11          1           0       -0.682935    0.972036   -1.920045
 ---------------------------------------------------------------------
 Rotational constants (GHZ):     10.0134904      7.0826278      5.3065864
 Leave Link  202 at Thu Mar 19 17:00:38 2026, MaxMem=   536870912 cpu:         0.0
 (Enter C:\G09W\l301.exe)
 Standard basis: 6-31G(d) (6D, 7F)
 Ernie: Thresh=  0.10000D-02 Tol=  0.10000D-05 Strict=F.
 There are    61 symmetry adapted cartesian basis functions of A   symmetry.
 There are    61 symmetry adapted basis functions of A   symmetry.
    61 basis functions,   116 primitive gaussians,    61 cartesian basis functions
    13 alpha electrons       13 beta electrons
       nuclear repulsion energy        63.4542985363 Hartrees.
 IExCor=  402 DFT=T Ex+Corr=B3LYP ExCW=0 ScaHFX=  0.200000
 ScaDFX=  0.800000  0.720000  1.000000  0.810000 ScalE2=  1.000000  1.000000
 IRadAn=      0 IRanWt=     -1 IRanGd=            0 ICorTp=0 IEmpDi=  4
 NAtoms=   11 NActive=   11 NUniq=   11 SFac= 1.00D+00 NAtFMM=   60 NAOKFM=F Big=F
 Integral buffers will be    131072 words long.
 Raffenetti 2 integral format.
 Two-electron integral symmetry is turned on.
 Leave Link  301 at Thu Mar 19 17:00:38 2026, MaxMem=   536870912 cpu:         0.0
 (Enter C:\G09W\l302.exe)
 NPDir=0 NMtPBC=     1 NCelOv=     1 NCel=       1 NClECP=     1 NCelD=      1
         NCelK=      1 NCelE2=     1 NClLst=     1 CellRange=     0.0.
 One-electron integrals computed using PRISM.
 NBasis=    61 RedAO= T EigKep=  3.92D-02  NBF=    61
 NBsUse=    61 1.00D-06 EigRej= -1.00D+00 NBFU=    61
 Precomputing XC quadrature grid using
 IXCGrd= 4 IRadAn=           0 IRanWt=          -1 IRanGd=           0 AccXCQ= 0.00D+00.
 Generated NRdTot=       0 NPtTot=           0 NUsed=           0 NTot=          32
 NSgBfM=    61    61    61    61    61 MxSgAt=    11 MxSgA2=    11.
 Leave Link  302 at Thu Mar 19 17:00:39 2026, MaxMem=   536870912 cpu:         0.0
 (Enter C:\G09W\l303.exe)
 DipDrv:  MaxL=1.
 Leave Link  303 at Thu Mar 19 17:00:39 2026, MaxMem=   536870912 cpu:         0.0
 (Enter C:\G09W\l401.exe)
 Initial guess from the checkpoint file:  "propane_xtb.chk"
 B after Tr=     0.000000    0.000000    0.000000
         Rot=    0.999866   -0.011825    0.006524    0.009228 Ang=  -1.87 deg.
 Guess basis will be translated and rotated to current coordinates.
 JPrj=2 DoOrth=T DoCkMO=T.
 Generating alternative initial guess.
 ExpMin= 1.61D-01 ExpMax= 3.05D+03 ExpMxC= 4.57D+02 IAcc=1 IRadAn=         1 AccDes= 0.00D+00
 Harris functional with IExCor=  402 and IRadAn=       1 diagonalized for initial guess.
 HarFok:  IExCor=  402 AccDes= 0.00D+00 IRadAn=         1 IDoV= 1 UseB2=F ITyADJ=14
 ICtDFT=  3500011 ScaDFX=  1.000000  1.000000  1.000000  1.000000
 FoFCou: FMM=F IPFlag=           0 FMFlag=      100000 FMFlg1=           0
         NFxFlg=           0 DoJE=T BraDBF=F KetDBF=T FulRan=T
         wScrn=  0.000000 ICntrl=     500 IOpCl=  0 I1Cent=   200000004 NGrid=           0
         NMat0=    1 NMatS0=      1 NMatT0=    0 NMatD0=    1 NMtDS0=    0 NMtDT0=    0
 Petite list used in FoFCou.
 Harris En= -117.991426118494    
 Leave Link  401 at Thu Mar 19 17:00:39 2026, MaxMem=   536870912 cpu:         0.0
 (Enter C:\G09W\l502.exe)
 Closed shell SCF:
 Using DIIS extrapolation, IDIIS=  1040.
 Integral symmetry usage will be decided dynamically.
 Keep R1 ints in memory in canonical form, NReq=2701164.
 IVT=       30556 IEndB=       30556 NGot=   536870912 MDV=   535051471
 LenX=   535051471 LenY=   535047309
 Requested convergence on RMS density matrix=1.00D-08 within 128 cycles.
 Requested convergence on MAX density matrix=1.00D-06.
 Requested convergence on             energy=1.00D-06.
 No special actions if energy rises.
 FoFCou: FMM=F IPFlag=           0 FMFlag=           0 FMFlg1=           0
         NFxFlg=           0 DoJE=F BraDBF=F KetDBF=F FulRan=T
         wScrn=  0.000000 ICntrl=     600 IOpCl=  0 I1Cent=           0 NGrid=           0
         NMat0=    1 NMatS0=   1891 NMatT0=    0 NMatD0=    1 NMtDS0=    0 NMtDT0=    0
 Symmetry not used in FoFCou.
 Integral accuracy reduced to 1.0D-05 until final iterations.

 Cycle   1  Pass 0  IDiag  1:
 E= -117.967111323752    
 DIIS: error= 3.94D-03 at cycle   1 NSaved=   1.
 NSaved= 1 IEnMin= 1 EnMin= -117.967111323752     IErMin= 1 ErrMin= 3.94D-03
 ErrMax= 3.94D-03  0.00D+00 EMaxC= 1.00D-01 BMatC= 9.74D-04 BMatP= 9.74D-04
 IDIUse=3 WtCom= 9.61D-01 WtEn= 3.94D-02
 Coeff-Com:  0.100D+01
 Coeff-En:   0.100D+01
 Coeff:      0.100D+01
 Gap=     1.907 Goal=   None    Shift=    0.000
 GapD=    1.907 DampG=2.000 DampE=1.000 DampFc=2.0000 IDamp=-1.
 RMSDP=1.53D-03 MaxDP=1.35D-02              OVMax= 4.15D-02

 Cycle   2  Pass 0  IDiag  1:
 E= -117.968781657922     Delta-E=       -0.001670334170 Rises=F Damp=F
 DIIS: error= 2.71D-03 at cycle   2 NSaved=   2.
 NSaved= 2 IEnMin= 2 EnMin= -117.968781657922     IErMin= 2 ErrMin= 2.71D-03
 ErrMax= 2.71D-03  0.00D+00 EMaxC= 1.00D-01 BMatC= 7.08D-04 BMatP= 9.74D-04
 IDIUse=3 WtCom= 9.73D-01 WtEn= 2.71D-02
 Coeff-Com:  0.438D+00 0.562D+00
 Coeff-En:   0.000D+00 0.100D+01
 Coeff:      0.426D+00 0.574D+00
 Gap=     0.039 Goal=   None    Shift=    0.000
 RMSDP=1.15D-03 MaxDP=1.23D-02 DE=-1.67D-03 OVMax= 3.08D-02

 Cycle   3  Pass 0  IDiag  1:
 E= -117.967262536289     Delta-E=        0.001519121633 Rises=F Damp=F
 DIIS: error= 5.62D-03 at cycle   3 NSaved=   3.
 NSaved= 3 IEnMin= 2 EnMin= -117.968781657922     IErMin= 2 ErrMin= 2.71D-03
 ErrMax= 5.62D-03  0.00D+00 EMaxC= 1.00D-01 BMatC= 1.86D-03 BMatP= 7.08D-04
 IDIUse=3 WtCom= 1.18D-01 WtEn= 8.82D-01
 Coeff-Com:  0.101D+00 0.576D+00 0.322D+00
 Coeff-En:   0.000D+00 0.649D+00 0.351D+00
 Coeff:      0.119D-01 0.641D+00 0.347D+00
 Gap=     0.040 Goal=   None    Shift=    0.000
 RMSDP=1.07D-03 MaxDP=1.11D-02 DE= 1.52D-03 OVMax= 4.08D-02

 Cycle   4  Pass 0  IDiag  1:
 E= -117.967816540359     Delta-E=       -0.000554004069 Rises=F Damp=F
 DIIS: error= 5.26D-03 at cycle   4 NSaved=   4.
 NSaved= 4 IEnMin= 2 EnMin= -117.968781657922     IErMin= 2 ErrMin= 2.71D-03
 ErrMax= 5.26D-03  0.00D+00 EMaxC= 1.00D-01 BMatC= 1.44D-03 BMatP= 7.08D-04
 IDIUse=3 WtCom= 1.21D-01 WtEn= 8.79D-01
 EnCoef did     5 forward-backward iterations
 Coeff-Com: -0.124D-01 0.476D+00 0.343D+00 0.194D+00
 Coeff-En:   0.000D+00 0.481D+00 0.318D+00 0.201D+00
 Coeff:     -0.151D-02 0.481D+00 0.321D+00 0.200D+00
 Gap=     0.038 Goal=   None    Shift=    0.000
 RMSDP=7.78D-04 MaxDP=9.60D-03 DE=-5.54D-04 OVMax= 3.02D-02

 Cycle   5  Pass 0  IDiag  1:
 E= -117.969844762364     Delta-E=       -0.002028222006 Rises=F Damp=F
 DIIS: error= 1.40D-03 at cycle   5 NSaved=   5.
 NSaved= 5 IEnMin= 5 EnMin= -117.969844762364     IErMin= 5 ErrMin= 1.40D-03
 ErrMax= 1.40D-03  0.00D+00 EMaxC= 1.00D-01 BMatC= 9.73D-05 BMatP= 7.08D-04
 IDIUse=3 WtCom= 9.86D-01 WtEn= 1.40D-02
 Coeff-Com: -0.254D-01 0.279D+00 0.195D+00 0.191D+00 0.361D+00
 Coeff-En:   0.000D+00 0.000D+00 0.000D+00 0.140D+00 0.860D+00
 Coeff:     -0.250D-01 0.275D+00 0.192D+00 0.191D+00 0.368D+00
 Gap=     0.038 Goal=   None    Shift=    0.000
 RMSDP=2.33D-04 MaxDP=2.59D-03 DE=-2.03D-03 OVMax= 9.36D-03

 Cycle   6  Pass 0  IDiag  1:
 E= -117.969985367211     Delta-E=       -0.000140604846 Rises=F Damp=F
 DIIS: error= 5.46D-04 at cycle   6 NSaved=   6.
 NSaved= 6 IEnMin= 6 EnMin= -117.969985367211     IErMin= 6 ErrMin= 5.46D-04
 ErrMax= 5.46D-04  0.00D+00 EMaxC= 1.00D-01 BMatC= 1.31D-05 BMatP= 9.73D-05
 IDIUse=3 WtCom= 9.95D-01 WtEn= 5.46D-03
 Coeff-Com: -0.173D-01 0.814D-01 0.686D-01 0.111D+00 0.338D+00 0.418D+00
 Coeff-En:   0.000D+00 0.000D+00 0.000D+00 0.000D+00 0.125D+00 0.875D+00
 Coeff:     -0.172D-01 0.809D-01 0.683D-01 0.110D+00 0.337D+00 0.421D+00
 Gap=     0.038 Goal=   None    Shift=    0.000
 RMSDP=1.48D-04 MaxDP=1.61D-03 DE=-1.41D-04 OVMax= 5.37D-03

 Cycle   7  Pass 0  IDiag  1:
 E= -117.970018807164     Delta-E=       -0.000033439953 Rises=F Damp=F
 DIIS: error= 2.45D-04 at cycle   7 NSaved=   7.
 NSaved= 7 IEnMin= 7 EnMin= -117.970018807164     IErMin= 7 ErrMin= 2.45D-04
 ErrMax= 2.45D-04  0.00D+00 EMaxC= 1.00D-01 BMatC= 4.25D-06 BMatP= 1.31D-05
 IDIUse=3 WtCom= 9.98D-01 WtEn= 2.45D-03
 Coeff-Com: -0.147D-02-0.509D-01-0.269D-03-0.156D-01 0.216D-02 0.329D+00
 Coeff-Com:  0.737D+00
 Coeff-En:   0.000D+00 0.000D+00 0.000D+00 0.000D+00 0.000D+00 0.000D+00
 Coeff-En:   0.100D+01
 Coeff:     -0.147D-02-0.507D-01-0.268D-03-0.155D-01 0.216D-02 0.328D+00
 Coeff:      0.737D+00
 Gap=     0.038 Goal=   None    Shift=    0.000
 RMSDP=1.23D-04 MaxDP=1.07D-03 DE=-3.34D-05 OVMax= 4.19D-03

 Cycle   8  Pass 0  IDiag  1:
 E= -117.970032763023     Delta-E=       -0.000013955859 Rises=F Damp=F
 DIIS: error= 2.01D-04 at cycle   8 NSaved=   8.
 NSaved= 8 IEnMin= 8 EnMin= -117.970032763023     IErMin= 8 ErrMin= 2.01D-04
 ErrMax= 2.01D-04  0.00D+00 EMaxC= 1.00D-01 BMatC= 1.39D-06 BMatP= 4.25D-06
 IDIUse=3 WtCom= 9.98D-01 WtEn= 2.01D-03
 Coeff-Com:  0.531D-02-0.742D-01-0.183D-01-0.508D-01-0.117D+00 0.192D+00
 Coeff-Com:  0.530D+00 0.533D+00
 Coeff-En:   0.000D+00 0.000D+00 0.000D+00 0.000D+00 0.000D+00 0.000D+00
 Coeff-En:   0.000D+00 0.100D+01
 Coeff:      0.530D-02-0.740D-01-0.183D-01-0.507D-01-0.117D+00 0.192D+00
 Coeff:      0.529D+00 0.534D+00
 Gap=     0.038 Goal=   None    Shift=    0.000
 RMSDP=1.17D-04 MaxDP=1.38D-03 DE=-1.40D-05 OVMax= 6.78D-03

 Cycle   9  Pass 0  IDiag  1:
 E= -117.970036834376     Delta-E=       -0.000004071353 Rises=F Damp=F
 DIIS: error= 2.35D-04 at cycle   9 NSaved=   9.
 NSaved= 9 IEnMin= 9 EnMin= -117.970036834376     IErMin= 8 ErrMin= 2.01D-04
 ErrMax= 2.35D-04  0.00D+00 EMaxC= 1.00D-01 BMatC= 2.00D-06 BMatP= 1.39D-06
 IDIUse=3 WtCom= 9.98D-01 WtEn= 2.01D-03
 Coeff-Com:  0.656D-02-0.640D-01-0.176D-01-0.528D-01-0.128D+00 0.120D+00
 Coeff-Com:  0.311D+00 0.577D+00 0.248D+00
 Coeff-En:   0.000D+00 0.000D+00 0.000D+00 0.000D+00 0.000D+00 0.000D+00
 Coeff-En:   0.000D+00 0.182D+00 0.818D+00
 Coeff:      0.655D-02-0.639D-01-0.176D-01-0.527D-01-0.128D+00 0.120D+00
 Coeff:      0.310D+00 0.576D+00 0.249D+00
 Gap=     0.038 Goal=   None    Shift=    0.000
 RMSDP=4.30D-05 MaxDP=6.16D-04 DE=-4.07D-06 OVMax= 1.66D-03

 Cycle  10  Pass 0  IDiag  1:
 E= -117.970041381929     Delta-E=       -0.000004547553 Rises=F Damp=F
 DIIS: error= 1.47D-04 at cycle  10 NSaved=  10.
 NSaved=10 IEnMin=10 EnMin= -117.970041381929     IErMin=10 ErrMin= 1.47D-04
 ErrMax= 1.47D-04  0.00D+00 EMaxC= 1.00D-01 BMatC= 7.94D-07 BMatP= 1.39D-06
 IDIUse=3 WtCom= 9.99D-01 WtEn= 1.47D-03
 Coeff-Com:  0.279D-02-0.142D-01-0.121D-02-0.245D-01-0.397D-01 0.606D-02
 Coeff-Com: -0.156D+00 0.351D+00 0.390D-01 0.836D+00
 Coeff-En:   0.000D+00 0.000D+00 0.000D+00 0.000D+00 0.000D+00 0.000D+00
 Coeff-En:   0.000D+00 0.000D+00 0.000D+00 0.100D+01
 Coeff:      0.279D-02-0.142D-01-0.121D-02-0.245D-01-0.396D-01 0.605D-02
 Coeff:     -0.155D+00 0.351D+00 0.389D-01 0.837D+00
 Gap=     0.038 Goal=   None    Shift=    0.000
 RMSDP=6.17D-05 MaxDP=6.71D-04 DE=-4.55D-06 OVMax= 3.08D-03

 Cycle  11  Pass 0  IDiag  1:
 E= -117.970044034435     Delta-E=       -0.000002652505 Rises=F Damp=F
 DIIS: error= 7.03D-05 at cycle  11 NSaved=  11.
 NSaved=11 IEnMin=11 EnMin= -117.970044034435     IErMin=11 ErrMin= 7.03D-05
 ErrMax= 7.03D-05  0.00D+00 EMaxC= 1.00D-01 BMatC= 2.51D-07 BMatP= 7.94D-07
 IDIUse=1 WtCom= 1.00D+00 WtEn= 0.00D+00
 Coeff-Com:  0.424D-04 0.824D-02 0.524D-02-0.418D-02 0.135D-01-0.305D-01
 Coeff-Com: -0.244D+00 0.148D+00-0.167D+00 0.687D+00 0.583D+00
 Coeff:      0.424D-04 0.824D-02 0.524D-02-0.418D-02 0.135D-01-0.305D-01
 Coeff:     -0.244D+00 0.148D+00-0.167D+00 0.687D+00 0.583D+00
 Gap=     0.038 Goal=   None    Shift=    0.000
 RMSDP=3.83D-05 MaxDP=3.87D-04 DE=-2.65D-06 OVMax= 2.06D-03

 Cycle  12  Pass 0  IDiag  1:
 E= -117.970045055050     Delta-E=       -0.000001020615 Rises=F Damp=F
 DIIS: error= 5.05D-05 at cycle  12 NSaved=  12.
 NSaved=12 IEnMin=12 EnMin= -117.970045055050     IErMin=12 ErrMin= 5.05D-05
 ErrMax= 5.05D-05  0.00D+00 EMaxC= 1.00D-01 BMatC= 9.60D-08 BMatP= 2.51D-07
 IDIUse=1 WtCom= 1.00D+00 WtEn= 0.00D+00
 Coeff-Com: -0.914D-03 0.876D-02 0.311D-02 0.728D-02 0.339D-01-0.188D-01
 Coeff-Com: -0.584D-01-0.309D-01-0.172D+00-0.146D+00 0.404D+00 0.970D+00
 Coeff:     -0.914D-03 0.876D-02 0.311D-02 0.728D-02 0.339D-01-0.188D-01
 Coeff:     -0.584D-01-0.309D-01-0.172D+00-0.146D+00 0.404D+00 0.970D+00
 Gap=     0.038 Goal=   None    Shift=    0.000
 RMSDP=3.56D-05 MaxDP=3.94D-04 DE=-1.02D-06 OVMax= 2.10D-03

 Cycle  13  Pass 0  IDiag  1:
 E= -117.970045592290     Delta-E=       -0.000000537241 Rises=F Damp=F
 DIIS: error= 2.19D-05 at cycle  13 NSaved=  13.
 NSaved=13 IEnMin=13 EnMin= -117.970045592290     IErMin=13 ErrMin= 2.19D-05
 ErrMax= 2.19D-05  0.00D+00 EMaxC= 1.00D-01 BMatC= 1.29D-08 BMatP= 9.60D-08
 IDIUse=1 WtCom= 1.00D+00 WtEn= 0.00D+00
 Coeff-Com:  0.120D-03-0.351D-02-0.162D-02-0.562D-03-0.493D-02 0.171D-01
 Coeff-Com:  0.623D-01 0.814D-02 0.549D-01-0.319D+00-0.902D-01-0.244D-01
 Coeff-Com:  0.130D+01
 Coeff:      0.120D-03-0.351D-02-0.162D-02-0.562D-03-0.493D-02 0.171D-01
 Coeff:      0.623D-01 0.814D-02 0.549D-01-0.319D+00-0.902D-01-0.244D-01
 Coeff:      0.130D+01
 Gap=     0.038 Goal=   None    Shift=    0.000
 RMSDP=1.98D-05 MaxDP=2.07D-04 DE=-5.37D-07 OVMax= 1.17D-03

 Cycle  14  Pass 0  IDiag  1:
 E= -117.970045708489     Delta-E=       -0.000000116199 Rises=F Damp=F
 DIIS: error= 5.59D-06 at cycle  14 NSaved=  14.
 NSaved=14 IEnMin=14 EnMin= -117.970045708489     IErMin=14 ErrMin= 5.59D-06
 ErrMax= 5.59D-06  0.00D+00 EMaxC= 1.00D-01 BMatC= 1.19D-09 BMatP= 1.29D-08
 IDIUse=1 WtCom= 1.00D+00 WtEn= 0.00D+00
 Coeff-Com:  0.201D-03-0.212D-02-0.811D-03-0.163D-02-0.724D-02 0.657D-02
 Coeff-Com:  0.749D-02 0.220D-01 0.361D-01-0.390D-01-0.404D-01-0.185D+00
 Coeff-Com:  0.179D+00 0.102D+01
 Coeff:      0.201D-03-0.212D-02-0.811D-03-0.163D-02-0.724D-02 0.657D-02
 Coeff:      0.749D-02 0.220D-01 0.361D-01-0.390D-01-0.404D-01-0.185D+00
 Coeff:      0.179D+00 0.102D+01
 Gap=     0.038 Goal=   None    Shift=    0.000
 RMSDP=6.09D-06 MaxDP=5.81D-05 DE=-1.16D-07 OVMax= 3.47D-04

 Initial convergence to 1.0D-05 achieved.  Increase integral accuracy.
 Cycle  15  Pass 1  IDiag  1:
 E= -117.970040500044     Delta-E=        0.000005208445 Rises=F Damp=F
 DIIS: error= 6.63D-06 at cycle   1 NSaved=   1.
 NSaved= 1 IEnMin= 1 EnMin= -117.970040500044     IErMin= 1 ErrMin= 6.63D-06
 ErrMax= 6.63D-06  0.00D+00 EMaxC= 1.00D-01 BMatC= 3.75D-09 BMatP= 3.75D-09
 IDIUse=1 WtCom= 1.00D+00 WtEn= 0.00D+00
 Coeff-Com:  0.100D+01
 Coeff:      0.100D+01
 Gap=     0.038 Goal=   None    Shift=    0.000
 RMSDP=6.09D-06 MaxDP=5.81D-05 DE= 5.21D-06 OVMax= 1.10D-04

 Cycle  16  Pass 1  IDiag  1:
 E= -117.970040508287     Delta-E=       -0.000000008243 Rises=F Damp=F
 DIIS: error= 5.35D-06 at cycle   2 NSaved=   2.
 NSaved= 2 IEnMin= 2 EnMin= -117.970040508287     IErMin= 2 ErrMin= 5.35D-06
 ErrMax= 5.35D-06  0.00D+00 EMaxC= 1.00D-01 BMatC= 7.18D-10 BMatP= 3.75D-09
 IDIUse=1 WtCom= 1.00D+00 WtEn= 0.00D+00
 Coeff-Com:  0.162D+00 0.838D+00
 Coeff:      0.162D+00 0.838D+00
 Gap=     0.038 Goal=   None    Shift=    0.000
 RMSDP=4.14D-06 MaxDP=8.07D-05 DE=-8.24D-09 OVMax= 2.28D-04

 Cycle  17  Pass 1  IDiag  1:
 E= -117.970040490015     Delta-E=        0.000000018272 Rises=F Damp=F
 DIIS: error= 2.03D-05 at cycle   3 NSaved=   3.
 NSaved= 3 IEnMin= 2 EnMin= -117.970040508287     IErMin= 2 ErrMin= 5.35D-06
 ErrMax= 2.03D-05  0.00D+00 EMaxC= 1.00D-01 BMatC= 7.77D-09 BMatP= 7.18D-10
 IDIUse=1 WtCom= 1.00D+00 WtEn= 0.00D+00
 Coeff-Com:  0.169D-03 0.778D+00 0.222D+00
 Coeff:      0.169D-03 0.778D+00 0.222D+00
 Gap=     0.038 Goal=   None    Shift=    0.000
 RMSDP=2.93D-06 MaxDP=5.73D-05 DE= 1.83D-08 OVMax= 1.42D-04

 Cycle  18  Pass 1  IDiag  1:
 E= -117.970040511041     Delta-E=       -0.000000021026 Rises=F Damp=F
 DIIS: error= 3.36D-06 at cycle   4 NSaved=   4.
 NSaved= 4 IEnMin= 4 EnMin= -117.970040511041     IErMin= 4 ErrMin= 3.36D-06
 ErrMax= 3.36D-06  0.00D+00 EMaxC= 1.00D-01 BMatC= 6.20D-10 BMatP= 7.18D-10
[...]
    A5        1.27274  -0.00836   0.02270   0.00000   0.02311   1.29585
    A6        2.01078  -0.00605   0.03117   0.00000   0.03147   2.04225
    A7        0.76188   0.00376   0.01612   0.00000   0.01582   0.77770
    A8        3.06511  -0.00035   0.01220   0.00000   0.01220   3.07731
    A9        0.49819   0.00485  -0.00474   0.00000  -0.00531   0.49288
   A10        2.97126   0.00614   0.01520   0.00000   0.01564   2.98690
   A11        2.76230  -0.00908  -0.01534   0.00000  -0.01552   2.74678
   A12        1.09942   0.00118   0.01334   0.00000   0.01341   1.11283
   A13        2.18247  -0.00471   0.00377   0.00000   0.00406   2.18653
   A14        1.19938  -0.01167   0.00499   0.00000   0.00491   1.20428
   A15        3.04337   0.00384   0.01645   0.00000   0.01701   3.06038
   A16        2.45619   0.00008  -0.01792   0.00000  -0.01746   2.43873
   A17        0.20299  -0.01076  -0.00906   0.00000  -0.00958   0.19341
   A18        0.59596   0.00349   0.03624   0.00000   0.03654   0.63250
   A19        2.99587   0.00817  -0.00352   0.00000  -0.00378   2.99210
   A20        2.64402  -0.00938  -0.02428   0.00000  -0.02422   2.61980
    D1       -1.67247  -0.00408  -0.01490   0.00000  -0.01499  -1.68746
    D2        2.78815   0.00411  -0.00814   0.00000  -0.00806   2.78009
    D3       -1.43017   0.00615  -0.00339   0.00000  -0.00343  -1.43360
    D4       -0.88509  -0.00996   0.02846   0.00000   0.02843  -0.85667
    D5        0.03507   0.00061   0.00487   0.00000   0.00466   0.03973
    D6        0.58015  -0.01550   0.03672   0.00000   0.03651   0.61666
    D7        2.40367  -0.00001   0.08238   0.00000   0.08205   2.48572
    D8        2.00381  -0.00276  -0.01682   0.00000  -0.01610   1.98772
    D9       -1.47377  -0.00032   0.00594   0.00000   0.00567  -1.46809
   D10        0.22286  -0.00195   0.07703   0.00000   0.07681   0.29967
   D11       -0.17700  -0.00470  -0.02218   0.00000  -0.02135  -0.19834
   D12        2.62861  -0.00226   0.00058   0.00000   0.00043   2.62904
   D13        0.09547   0.00475   0.02824   0.00000   0.02795   0.12342
   D14        2.56115  -0.00115  -0.06078   0.00000  -0.06071   2.50045
   D15       -0.53362  -0.00519  -0.11227   0.00000  -0.11234  -0.64596
   D16       -0.07913  -0.00457  -0.01701   0.00000  -0.01726  -0.09640
   D17       -2.47559   0.00439  -0.09878   0.00000  -0.09901  -2.57460
   D18        3.10196   0.00161   0.01862   0.00000   0.01738   3.11934
   D19        0.25085  -0.01368   0.00785   0.00000   0.00788   0.25873
   D20       -2.98705   0.00785   0.04922   0.00000   0.04817  -2.93888
   D21        0.44502  -0.00744   0.03846   0.00000   0.03868   0.48370
   D22        2.77271  -0.01105  -0.04624   0.00000  -0.04669   2.72602
   D23        0.10409  -0.02062  -0.02209   0.00000  -0.02247   0.08162
   D24       -0.11320  -0.00305  -0.01588   0.00000  -0.01519  -0.12839
   D25       -2.78182  -0.01262   0.00827   0.00000   0.00903  -2.77279
   D26       -0.20496  -0.00488  -0.03229   0.00000  -0.03316  -0.23812
   D27        3.00469  -0.00745  -0.03590   0.00000  -0.03562   2.96907
   D28       -0.34468   0.00588  -0.01283   0.00000  -0.01291  -0.35759
   D29        0.06553   0.00211   0.00758   0.00000   0.00734   0.07286
   D30       -3.00800  -0.00046   0.00397   0.00000   0.00487  -3.00313
   D31       -0.07419   0.01287   0.02704   0.00000   0.02758  -0.04660
         Item               Value     Threshold  Converged?
 Maximum Force            0.020625     0.000450     NO 
 RMS     Force            0.008415     0.000300     NO 
 Maximum Displacement     0.119147     0.001800     NO 
 RMS     Displacement     0.029276     0.001200     NO 
 Predicted change in Energy=-5.871944D-04
 Optimization stopped.
    -- Number of steps exceeded,  NStep=  73
    -- Flag reset to prevent archiving.
                           ----------------------------
                           ! Non-Optimized Parameters !
                           ! (Angstroms and Degrees)  !
 --------------------------                            --------------------------
 ! Name  Definition              Value          Derivative Info.                !
 --------------------------------------------------------------------------------
 ! R1    R(1,4)                  3.1981         -DE/DX =   -0.0005              !
 ! R2    R(1,8)                  1.1019         -DE/DX =    0.0139              !
 ! R3    R(1,9)                  2.6893         -DE/DX =    0.0103              !
 ! R4    R(2,7)                  2.1448         -DE/DX =    0.0184              !
 ! R5    R(2,9)                  2.0133         -DE/DX =    0.0179              !
 ! R6    R(3,7)                  1.0802         -DE/DX =   -0.0102              !
 ! R7    R(3,8)                  3.9537         -DE/DX =   -0.0068              !
 ! R8    R(3,9)                  1.1058         -DE/DX =   -0.0193              !
 ! R9    R(4,5)                  0.7509         -DE/DX =   -0.0063              !
 ! R10   R(6,8)                  3.6319         -DE/DX =    0.0028              !
 ! R11   R(7,10)                 3.1691         -DE/DX =    0.001               !
 ! R12   R(9,11)                 3.6352         -DE/DX =   -0.012               !
 ! A1    A(4,1,8)              128.4756         -DE/DX =    0.0016              !
 ! A2    A(4,1,9)               72.5772         -DE/DX =   -0.0016              !
 ! A3    A(8,1,9)              111.5525         -DE/DX =   -0.0053              !
 ! A4    A(7,2,9)               53.1532         -DE/DX =   -0.0136              !
 ! A5    A(7,3,8)               74.2467         -DE/DX =   -0.0084              !
 ! A6    A(7,3,9)              117.0122         -DE/DX =   -0.0061              !
 ! A7    A(8,3,9)               44.5587         -DE/DX =    0.0038              !
 ! A8    A(1,4,5)              176.3169         -DE/DX =   -0.0003              !
 ! A9    A(2,7,3)               28.2398         -DE/DX =    0.0048              !
 ! A10   A(2,7,10)             171.1365         -DE/DX =    0.0061              !
 ! A11   A(3,7,10)             157.3789         -DE/DX =   -0.0091              !
 ! A12   A(1,8,3)               63.7606         -DE/DX =    0.0012              !
 ! A13   A(1,8,6)              125.2788         -DE/DX =   -0.0047              !
 ! A14   A(3,8,6)               69.0004         -DE/DX =   -0.0117              !
 ! A15   A(1,9,2)              175.3468         -DE/DX =    0.0038              !
 ! A16   A(1,9,3)              139.7291         -DE/DX =    0.0001              !
 ! A17   A(1,9,11)              11.0815         -DE/DX =   -0.0108              !
 ! A18   A(2,9,3)               36.2397         -DE/DX =    0.0035              !
 ! A19   A(2,9,11)             171.4344         -DE/DX =    0.0082              !
 ! A20   A(3,9,11)             150.1037         -DE/DX =   -0.0094              !
 ! D1    D(8,1,4,5)            -96.6844         -DE/DX =   -0.0041              !
 ! D2    D(9,1,4,5)            159.2876         -DE/DX =    0.0041              !
 ! D3    D(4,1,8,3)            -82.139          -DE/DX =    0.0061              !
 ! D4    D(4,1,8,6)            -49.0834         -DE/DX =   -0.01                !
 ! D5    D(9,1,8,3)              2.2763         -DE/DX =    0.0006              !
 ! D6    D(9,1,8,6)             35.3319         -DE/DX =   -0.0155              !
 ! D7    D(4,1,9,2)            142.4214         -DE/DX =    0.0                 !
 ! D8    D(4,1,9,3)            113.8877         -DE/DX =   -0.0028              !
 ! D9    D(4,1,9,11)           -84.1155         -DE/DX =   -0.0003              !
 ! D10   D(8,1,9,2)             17.1696         -DE/DX =   -0.002               !
 ! D11   D(8,1,9,3)            -11.3641         -DE/DX =   -0.0047              !
 ! D12   D(8,1,9,11)           150.6326         -DE/DX =   -0.0023              !
 ! D13   D(9,2,7,3)              7.0716         -DE/DX =    0.0048              !
 ! D14   D(9,2,7,10)           143.265          -DE/DX =   -0.0011              !
 ! D15   D(7,2,9,1)            -37.0106         -DE/DX =   -0.0052              !
 ! D16   D(7,2,9,3)             -5.5232         -DE/DX =   -0.0046              !
 ! D17   D(7,2,9,11)          -147.5136         -DE/DX =    0.0044              !
 ! D18   D(8,3,7,2)            178.725          -DE/DX =    0.0016              !
 ! D19   D(8,3,7,10)            14.8241         -DE/DX =   -0.0137              !
 ! D20   D(9,3,7,2)           -168.3853         -DE/DX =    0.0078              !
 ! D21   D(9,3,7,10)            27.7138         -DE/DX =   -0.0074              !
 ! D22   D(7,3,8,1)            156.1894         -DE/DX =   -0.0111              !
 ! D23   D(7,3,8,6)              4.6765         -DE/DX =   -0.0206              !
 ! D24   D(9,3,8,1)             -7.3563         -DE/DX =   -0.003               !
 ! D25   D(9,3,8,6)           -158.8692         -DE/DX =   -0.0126              !
 ! D26   D(7,3,9,1)            -13.6431         -DE/DX =   -0.0049              !
 ! D27   D(7,3,9,2)            170.1154         -DE/DX =   -0.0074              !
 ! D28   D(7,3,9,11)           -20.4881         -DE/DX =    0.0059              !
 ! D29   D(8,3,9,1)              4.1748         -DE/DX =    0.0021              !
 ! D30   D(8,3,9,2)           -172.0668         -DE/DX =   -0.0005              !
 ! D31   D(8,3,9,11)            -2.6702         -DE/DX =    0.0129              !
 --------------------------------------------------------------------------------
 GradGradGradGradGradGradGradGradGradGradGradGradGradGradGradGradGradGrad

 Largest change from initial coordinates is atom    5       4.354 Angstoms.
 Leave Link  103 at Thu Mar 19 17:08:44 2026, MaxMem=   536870912 cpu:         0.0
 (Enter C:\G09W\l202.exe)
                          Input orientation:                          
 ---------------------------------------------------------------------
 Center     Atomic      Atomic             Coordinates (Angstroms)
 Number     Number       Type             X           Y           Z
 ---------------------------------------------------------------------
      1          6           0       -1.564127    1.000370    0.377122
      2          6           0        2.914429    0.022061    1.373685
      3          6           0        1.932888    0.199789    0.578325
      4          1           0       -1.553596   -1.880728    1.735934
      5          1           0       -1.607264   -2.554084    2.067124
      6          1           0        0.301279   -0.199459   -3.368284
      7          1           0        1.915113    0.046849   -0.490885
      8          1           0       -1.664334    1.253479   -0.686292
      9          1           0        0.946614    0.402575    1.042894
     10          1           0        0.890729    0.267690   -3.463875
     11          1           0       -2.511732    1.441459    0.834251
 ---------------------------------------------------------------------
                    Distance matrix (angstroms):
                    1          2          3          4          5
     1  C    0.000000
     2  C    4.691236   0.000000
     3  C    3.593122   1.275777   0.000000
     4  H    3.185468   4.869813   4.221869   0.000000
     5  H    3.936002   5.250057   4.725782   0.752314   0.000000
     6  H    4.352860   5.418846   4.289203   5.685091   6.223379
     7  H    3.710491   2.115625   1.080239   4.550408   5.071036
     8  H    1.097704   5.169619   3.955948   3.962662   4.699158
     9  H    2.665414   2.031381   1.108911   3.456129   4.038957
    10  H    4.616968   5.249540   4.174935   6.134202   6.692856
    11  H    1.140825   5.634616   4.621892   3.573231   4.278130
                    6          7          8          9         10
     6  H    0.000000
     7  H    3.308255   0.000000
     8  H    3.628739   3.782403   0.000000
     9  H    4.498599   1.848515   3.245177   0.000000
    10  H    0.758167   3.152269   3.900653   4.509133   0.000000
    11  H    5.316667   4.826787   1.750849   3.617039   5.606100
                   11
    11  H    0.000000
 Stoichiometry    C3H8
 Framework group  C1[X(C3H8)]
 Deg. of freedom    27
 Full point group                 C1      NOp   1
 RotChk:  IX=0 Diff= 2.40D-15
 Largest Abelian subgroup         C1      NOp   1
 Largest concise Abelian subgroup C1      NOp   1
                         Standard orientation:                         
 ---------------------------------------------------------------------
 Center     Atomic      Atomic             Coordinates (Angstroms)
 Number     Number       Type             X           Y           Z
 ---------------------------------------------------------------------
      1          6           0        2.252390   -0.165773   -0.557008
      2          6           0       -2.413617   -0.498127   -0.202593
      3          6           0       -1.299921    0.114950   -0.095700
      4          1           0        1.673448   -2.151389    1.865668
      5          1           0        1.590838   -2.639091    2.432499
      6          1           0        0.902655    3.464328    1.429942
      7          1           0       -1.123883    1.092265    0.329484
      8          1           0        2.556626    0.888219   -0.518335
      9          1           0       -0.387043   -0.465901   -0.338495
     10          1           0        0.397164    3.780022    0.961291
     11          1           0        3.157083   -0.674748   -1.030250
 ---------------------------------------------------------------------
 Rotational constants (GHZ):      8.2031817      2.6378912      2.3181655
 Leave Link  202 at Thu Mar 19 17:08:44 2026, MaxMem=   536870912 cpu:         0.0
 (Enter C:\G09W\l601.exe)
 Copying SCF densities to generalized density rwf, IOpCl= 0 IROHF=0.

 **********************************************************************

            Population analysis using the SCF density.

 **********************************************************************

 Orbital symmetries:
       Occupied  (A) (A) (A) (A) (A) (A) (A) (A) (A) (A) (A) (A)
                 (A)
       Virtual   (A) (A) (A) (A) (A) (A) (A) (A) (A) (A) (A) (A)
                 (A) (A) (A) (A) (A) (A) (A) (A) (A) (A) (A) (A)
                 (A) (A) (A) (A) (A) (A) (A) (A) (A) (A) (A) (A)
                 (A) (A) (A) (A) (A) (A) (A) (A) (A) (A) (A) (A)
 The electronic state is 1-A.
 Alpha  occ. eigenvalues --  -10.27355 -10.21556 -10.16897  -0.76332  -0.68786
 Alpha  occ. eigenvalues --   -0.52204  -0.44366  -0.44028  -0.42932  -0.42643
 Alpha  occ. eigenvalues --   -0.27577  -0.27116  -0.26230
 Alpha virt. eigenvalues --   -0.14387  -0.07101   0.04830   0.07984   0.08829
 Alpha virt. eigenvalues --    0.11106   0.14194   0.15100   0.21298   0.33651
 Alpha virt. eigenvalues --    0.48625   0.51073   0.52721   0.54928   0.57696
 Alpha virt. eigenvalues --    0.58414   0.62418   0.65003   0.65940   0.67888
 Alpha virt. eigenvalues --    0.71973   0.74582   0.76011   0.82756   0.87896
 Alpha virt. eigenvalues --    0.92425   0.98383   1.08488   1.13610   1.15024
 Alpha virt. eigenvalues --    1.49592   1.53917   1.63934   1.65731   1.66551
 Alpha virt. eigenvalues --    1.68498   1.81359   1.90358   1.95719   2.12554
 Alpha virt. eigenvalues --    2.17965   2.19899   2.46180   2.58895   2.80540
 Alpha virt. eigenvalues --    3.97486   4.01792   4.20875
          Condensed to atoms (all electrons):
               1          2          3          4          5          6
     1  C    5.706742   0.000455  -0.007867   0.007074  -0.001337   0.000000
     2  C    0.000455   5.450407   0.568410   0.000013  -0.000005   0.000002
     3  C   -0.007867   0.568410   5.250419  -0.000034   0.000008  -0.000121
     4  H    0.007074   0.000013  -0.000034   0.595385   0.394302   0.000000
     5  H   -0.001337  -0.000005   0.000008   0.394302   0.617038   0.000000
     6  H    0.000000   0.000002  -0.000121   0.000000   0.000000   0.601116
     7  H   -0.000493  -0.008673   0.343763  -0.000004   0.000001   0.000500
     8  H    0.268906  -0.000010   0.000436  -0.000193   0.000038   0.000179
     9  H    0.026731  -0.001405   0.313659   0.000418  -0.000070  -0.000005
    10  H   -0.000020   0.000003  -0.000135   0.000000   0.000000   0.398995
    11  H    0.273943  -0.000004   0.000097  -0.000386   0.000082   0.000000
               7          8          9         10         11
     1  C   -0.000493   0.268906   0.026731  -0.000020   0.273943
     2  C   -0.008673  -0.000010  -0.001405   0.000003  -0.000004
     3  C    0.343763   0.000436   0.313659  -0.000135   0.000097
     4  H   -0.000004  -0.000193   0.000418   0.000000  -0.000386
     5  H    0.000001   0.000038  -0.000070   0.000000   0.000082
     6  H    0.000500   0.000179  -0.000005   0.398995   0.000000
     7  H    0.476283   0.000095  -0.013548   0.000826   0.000008
     8  H    0.000095   0.615253  -0.001378   0.000058  -0.043298
     9  H   -0.013548  -0.001378   0.430920  -0.000008  -0.000404
    10  H    0.000826   0.000058  -0.000008   0.598215   0.000000
    11  H    0.000008  -0.043298  -0.000404   0.000000   0.619015
 Mulliken charges:
               1
     1  C   -0.274133
     2  C   -0.009192
     3  C   -0.468635
     4  H    0.003426
     5  H   -0.010056
     6  H   -0.000667
     7  H    0.201243
     8  H    0.159913
     9  H    0.245090
    10  H    0.002065
    11  H    0.150948
 Sum of Mulliken charges =   0.00000
 Mulliken charges with hydrogens summed into heavy atoms:
               1
     1  C    0.030097
     2  C   -0.009192
     3  C   -0.020905
 Electronic spatial extent (au):  <R**2>=            616.6371
 Charge=              0.0000 electrons
 Dipole moment (field-independent basis, Debye):
    X=              4.4206    Y=              1.9400    Z=             -0.3662  Tot=              4.8414
 Quadrupole moment (field-independent basis, Debye-Ang):
   XX=            -24.2309   YY=            -23.0187   ZZ=            -22.7376
   XY=             -2.5443   XZ=             -3.1123   YZ=              0.4408
 Traceless Quadrupole moment (field-independent basis, Debye-Ang):
   XX=             -0.9018   YY=              0.3104   ZZ=              0.5915
   XY=             -2.5443   XZ=             -3.1123   YZ=              0.4408
 Octapole moment (field-independent basis, Debye-Ang**2):
  XXX=             52.6551  YYY=              3.5618  ZZZ=             -2.4040  XYY=              0.8223
  XXY=             12.2260  XXZ=             -1.1098  XZZ=              6.3240  YZZ=             -0.3581
  YYZ=             -0.2807  XYZ=             -0.2686
 Hexadecapole moment (field-independent basis, Debye-Ang**3):
 XXXX=           -585.7131 YYYY=           -261.6892 ZZZZ=           -107.7034 XXXY=            -37.0853
 XXXZ=            -29.1390 YYYX=             -7.3829 YYYZ=             -6.6502 ZZZX=             -8.4387
 ZZZY=             -2.6604 XXYY=           -144.2508 XXZZ=           -109.4446 YYZZ=            -59.4457
 XXYZ=              2.6035 YYXZ=             -0.6848 ZZXY=             -0.9350
 N-N= 5.709695260213D+01 E-N=-3.879788387342D+02  KE= 1.176865884157D+02
 No NMR shielding tensors so no spin-rotation constants.
 Leave Link  601 at Thu Mar 19 17:08:44 2026, MaxMem=   536870912 cpu:         0.0
 (Enter C:\G09W\l9999.exe)


 IF YOU BELIEVE CERTAIN WORDS, YOU BELIEVE THEIR HIDDEN ARGUMENTS.
 WHEN YOU BELIEVE SOMETHING IS RIGHT OR WRONG, TRUE OR FALSE, 
 YOU BELIEVE THE ASSUMPTIONS IN THE WORDS WHICH EXPRESS THE ARGUMENTS.
 SUCH ASSUMPTIONS ARE OFTEN FULL OF HOLES, BUT REMAIN MOST PRECIOUS 
 TO THE CONVINCED.

                 -- THE OPEN-ENDED PROOF FROM THE PANOPLIA PROPHETICA
                    CHILDREN OF DUNE BY FRANK HERBERT
 Error termination request processed by link 9999.
 Error termination via Lnk1e in C:\G09W\l9999.exe at Thu Mar 19 17:08:45 2026.
 Job cpu time:       0 days  0 hours  8 minutes 21.0 seconds.
 File lengths (MBytes):  RWF=      5 Int=      0 D2E=      0 Chk=      2 Scr=      1
