11
 energy: -9.397180866217 gnorm: 0.002405608135 xtb: 6.7.1 (edcfbbe)
C           -0.66974080330536       -0.04063154516326        0.12386413548143
C            1.16431930988808       -0.72421574282604        1.22117217007590
C            1.18939774708344        1.44261813609755       -0.13713762141841
H           -0.49608482135412       -1.56010801629572        0.80465307178205
H           -1.44836394105895       -2.47920358126198        1.78610311225898
H           -0.38972593824547        1.28883969777096       -2.65872376503428
H            1.20797359417433       -0.31776821796340       -0.40528101083571
H           -0.22990013015559        0.97847232906730       -1.07095752788569
H            0.33720187300805        0.81113484709898        1.16916659747954
H            0.52917432789891       -1.22037731487301       -1.63911724900684
H           -1.19425021793380        1.82124040834834        0.80625708710317
