 Entering Gaussian System, Link 0=C:\G09W\g09.exe
 Input=acetone_rdkit.com
 Output=C:\workspace\delta_chem\benchmark_results\acetone\acetone_rdkit.out
 Initial command:
 C:\G09W\l1.exe ".\Gau-19656.inp" "C:\workspace\delta_chem\benchmark_results\acetone\acetone_rdkit.out" /scrdir=".\"
 Entering Link 1 = C:\G09W\l1.exe PID=      4884.
  
 Copyright (c) 1988,1990,1992,1993,1995,1998,2003,2009,2013,
            Gaussian, Inc.  All Rights Reserved.
  
 This is part of the Gaussian(R) 09 program.  It is based on
 the Gaussian(R) 03 system (copyright 2003, Gaussian, Inc.),
 the Gaussian(R) 98 system (copyright 1998, Gaussian, Inc.),
 the Gaussian(R) 94 system (copyright 1995, Gaussian, Inc.),
 the Gaussian 92(TM) system (copyright 1992, Gaussian, Inc.),
 the Gaussian 90(TM) system (copyright 1990, Gaussian, Inc.),
 the Gaussian 88(TM) system (copyright 1988, Gaussian, Inc.),
 the Gaussian 86(TM) system (copyright 1986, Carnegie Mellon
 University), and the Gaussian 82(TM) system (copyright 1983,
 Carnegie Mellon University). Gaussian is a federally registered
 trademark of Gaussian, Inc.
  
 This software contains proprietary and confidential information,
 including trade secrets, belonging to Gaussian, Inc.
  
 This software is provided under written license and may be
 used, copied, transmitted, or stored only in accord with that
 written license.
  
 The following legend is applicable only to US Government
 contracts under FAR:
  
                    RESTRICTED RIGHTS LEGEND
  
 Use, reproduction and disclosure by the US Government is
 subject to restrictions as set forth in subparagraphs (a)
 and (c) of the Commercial Computer Software - Restricted
 Rights clause in FAR 52.227-19.
  
 Gaussian, Inc.
 340 Quinnipiac St., Bldg. 40, Wallingford CT 06492
  
  
 ---------------------------------------------------------------
 Warning -- This program may not be used in any manner that
 competes with the business of Gaussian, Inc. or will provide
 assistance to any competitor of Gaussian, Inc.  The licensee
 of this program is prohibited from giving any competitor of
 Gaussian, Inc. access to this program.  By using this program,
 the user acknowledges that Gaussian, Inc. is engaged in the
 business of creating and licensing software in the field of
 computational chemistry and represents and warrants to the
 licensee that it is not a competitor of Gaussian, Inc. and that
 it will not use this program in any manner prohibited above.
 ---------------------------------------------------------------
  

 Cite this work as:
 Gaussian 09, Revision D.01,
 M. J. Frisch, G. W. Trucks, H. B. Schlegel, G. E. Scuseria, 
 M. A. Robb, J. R. Cheeseman, G. Scalmani, V. Barone, B. Mennucci, 
 G. A. Petersson, H. Nakatsuji, M. Caricato, X. Li, H. P. Hratchian, 
 A. F. Izmaylov, J. Bloino, G. Zheng, J. L. Sonnenberg, M. Hada, 
 M. Ehara, K. Toyota, R. Fukuda, J. Hasegawa, M. Ishida, T. Nakajima, 
 Y. Honda, O. Kitao, H. Nakai, T. Vreven, J. A. Montgomery, Jr., 
 J. E. Peralta, F. Ogliaro, M. Bearpark, J. J. Heyd, E. Brothers, 
 K. N. Kudin, V. N. Staroverov, T. Keith, R. Kobayashi, J. Normand, 
 K. Raghavachari, A. Rendell, J. C. Burant, S. S. Iyengar, J. Tomasi, 
 M. Cossi, N. Rega, J. M. Millam, M. Klene, J. E. Knox, J. B. Cross, 
 V. Bakken, C. Adamo, J. Jaramillo, R. Gomperts, R. E. Stratmann, 
 O. Yazyev, A. J. Austin, R. Cammi, C. Pomelli, J. W. Ochterski, 
 R. L. Martin, K. Morokuma, V. G. Zakrzewski, G. A. Voth, 
 P. Salvador, J. J. Dannenberg, S. Dapprich, A. D. Daniels, 
 O. Farkas, J. B. Foresman, J. V. Ortiz, J. Cioslowski, 
 and D. J. Fox, Gaussian, Inc., Wallingford CT, 2013.
 
 ******************************************
 Gaussian 09:  EM64W-G09RevD.01 13-Apr-2013
                19-Mar-2026 
 ******************************************
 %NProcShared=4
 Will use up to    4 processors via shared memory.
 %Mem=4GB
 %Chk=acetone_rdkit.chk
 ---------------------
 #p opt B3LYP/6-31G(d)
 ---------------------
 1/14=-1,18=20,19=15,26=3,38=1/1,3;
 2/9=110,12=2,17=6,18=5,40=1/2;
 3/5=1,6=6,7=1,11=2,16=1,25=1,30=1,71=1,74=-5/1,2,3;
 4//1;
 5/5=2,38=5/2;
 6/7=2,8=2,9=2,10=2,28=1/1;
 7//1,2,3,16;
 1/14=-1,18=20,19=15,26=3/3(2);
 2/9=110/2;
 99//99;
 2/9=110/2;
 3/5=1,6=6,7=1,11=2,16=1,25=1,30=1,71=1,74=-5/1,2,3;
 4/5=5,16=3,69=1/1;
 5/5=2,38=5/2;
 7//1,2,3,16;
 1/14=-1,18=20,19=15,26=3/3(-5);
 2/9=110/2;
 6/7=2,8=2,9=2,10=2,19=2,28=1/1;
 99/9=1/99;
 Leave Link    1 at Thu Mar 19 17:38:08 2026, MaxMem=   536870912 cpu:         1.0
 (Enter C:\G09W\l101.exe)
 ---------------
 acetone [rdkit]
 ---------------
 Symbolic Z-matrix:
 Charge =  0 Multiplicity = 1
 C                    -1.28862  -0.07996   0.05165 
 C                     0.0357    0.46646  -0.40869 
 C                     1.2693   -0.17247   0.16952 
 O                     0.1064    1.39012  -1.21796 
 H                    -1.3608   -1.13747  -0.21403 
 H                    -2.10189   0.46374  -0.43698 
 H                    -1.38014   0.04459   1.13343 
 H                     1.28915  -1.23331  -0.09192 
 H                     2.16108   0.30956  -0.24055 
 H                     1.26982  -0.05126   1.25553 
 
 NAtoms=     10 NQM=       10 NQMF=       0 NMMI=      0 NMMIF=      0
                NMic=       0 NMicF=      0.
                    Isotopes and Nuclear Properties:
 (Nuclear quadrupole moments (NQMom) in fm**2, nuclear magnetic moments (NMagM)
  in nuclear magnetons)

  Atom         1           2           3           4           5           6           7           8           9          10
 IAtWgt=          12          12          12          16           1           1           1           1           1           1
 AtmWgt=  12.0000000  12.0000000  12.0000000  15.9949146   1.0078250   1.0078250   1.0078250   1.0078250   1.0078250   1.0078250
 NucSpn=           0           0           0           0           1           1           1           1           1           1
 AtZEff=   0.0000000   0.0000000   0.0000000   0.0000000   0.0000000   0.0000000   0.0000000   0.0000000   0.0000000   0.0000000
 NQMom=    0.0000000   0.0000000   0.0000000   0.0000000   0.0000000   0.0000000   0.0000000   0.0000000   0.0000000   0.0000000
 NMagM=    0.0000000   0.0000000   0.0000000   0.0000000   2.7928460   2.7928460   2.7928460   2.7928460   2.7928460   2.7928460
 AtZNuc=   6.0000000   6.0000000   6.0000000   8.0000000   1.0000000   1.0000000   1.0000000   1.0000000   1.0000000   1.0000000
 Leave Link  101 at Thu Mar 19 17:38:08 2026, MaxMem=   536870912 cpu:         0.0
 (Enter C:\G09W\l103.exe)

 GradGradGradGradGradGradGradGradGradGradGradGradGradGradGradGradGradGrad
 Berny optimization.
 Initialization pass.
                           ----------------------------
                           !    Initial Parameters    !
                           ! (Angstroms and Degrees)  !
 --------------------------                            --------------------------
 ! Name  Definition              Value          Derivative Info.                !
 --------------------------------------------------------------------------------
 ! R1    R(1,2)                  1.5048         estimate D2E/DX2                !
 ! R2    R(1,5)                  1.0928         estimate D2E/DX2                !
 ! R3    R(1,6)                  1.0935         estimate D2E/DX2                !
 ! R4    R(1,7)                  1.0928         estimate D2E/DX2                !
 ! R5    R(2,3)                  1.5048         estimate D2E/DX2                !
 ! R6    R(2,4)                  1.2301         estimate D2E/DX2                !
 ! R7    R(3,8)                  1.0928         estimate D2E/DX2                !
 ! R8    R(3,9)                  1.0935         estimate D2E/DX2                !
 ! R9    R(3,10)                 1.0928         estimate D2E/DX2                !
 ! A1    A(2,1,5)              109.583          estimate D2E/DX2                !
 ! A2    A(2,1,6)              109.7118         estimate D2E/DX2                !
 ! A3    A(2,1,7)              109.583          estimate D2E/DX2                !
 ! A4    A(5,1,6)              108.8683         estimate D2E/DX2                !
 ! A5    A(5,1,7)              110.2093         estimate D2E/DX2                !
 ! A6    A(6,1,7)              108.8682         estimate D2E/DX2                !
 ! A7    A(1,2,3)              116.7271         estimate D2E/DX2                !
 ! A8    A(1,2,4)              121.6364         estimate D2E/DX2                !
 ! A9    A(3,2,4)              121.6365         estimate D2E/DX2                !
 ! A10   A(2,3,8)              109.583          estimate D2E/DX2                !
 ! A11   A(2,3,9)              109.7118         estimate D2E/DX2                !
 ! A12   A(2,3,10)             109.5831         estimate D2E/DX2                !
 ! A13   A(8,3,9)              108.8682         estimate D2E/DX2                !
 ! A14   A(8,3,10)             110.2093         estimate D2E/DX2                !
 ! A15   A(9,3,10)             108.8682         estimate D2E/DX2                !
 ! D1    D(5,1,2,3)            -60.5231         estimate D2E/DX2                !
 ! D2    D(5,1,2,4)            119.4769         estimate D2E/DX2                !
 ! D3    D(6,1,2,3)            179.9999         estimate D2E/DX2                !
 ! D4    D(6,1,2,4)             -0.0001         estimate D2E/DX2                !
 ! D5    D(7,1,2,3)             60.5231         estimate D2E/DX2                !
 ! D6    D(7,1,2,4)           -119.4769         estimate D2E/DX2                !
 ! D7    D(1,2,3,8)             60.523          estimate D2E/DX2                !
 ! D8    D(1,2,3,9)            179.9999         estimate D2E/DX2                !
 ! D9    D(1,2,3,10)           -60.5232         estimate D2E/DX2                !
 ! D10   D(4,2,3,8)           -119.477          estimate D2E/DX2                !
 ! D11   D(4,2,3,9)             -0.0001         estimate D2E/DX2                !
 ! D12   D(4,2,3,10)           119.4769         estimate D2E/DX2                !
 --------------------------------------------------------------------------------
 Trust Radius=3.00D-01 FncErr=1.00D-07 GrdErr=1.00D-06
 Number of steps in this run=     46 maximum allowed number of steps=    100.
 GradGradGradGradGradGradGradGradGradGradGradGradGradGradGradGradGradGrad

 Leave Link  103 at Thu Mar 19 17:38:09 2026, MaxMem=   536870912 cpu:         0.0
 (Enter C:\G09W\l202.exe)
                          Input orientation:                          
 ---------------------------------------------------------------------
 Center     Atomic      Atomic             Coordinates (Angstroms)
 Number     Number       Type             X           Y           Z
 ---------------------------------------------------------------------
      1          6           0       -1.288616   -0.079961    0.051654
      2          6           0        0.035703    0.466464   -0.408694
      3          6           0        1.269295   -0.172474    0.169517
      4          8           0        0.106398    1.390122   -1.217960
      5          1           0       -1.360801   -1.137468   -0.214027
      6          1           0       -2.101894    0.463739   -0.436976
      7          1           0       -1.380137    0.044586    1.133426
      8          1           0        1.289153   -1.233310   -0.091921
      9          1           0        2.161081    0.309557   -0.240550
     10          1           0        1.269819   -0.051255    1.255530
 ---------------------------------------------------------------------
                    Distance matrix (angstroms):
                    1          2          3          4          5
     1  C    0.000000
     2  C    1.504766   0.000000
     3  C    2.562296   1.504765   0.000000
     4  O    2.391470   1.230062   2.391470   0.000000
     5  H    1.092757   2.135583   2.827671   3.090189   0.000000
     6  H    1.093522   2.137786   3.483894   2.518864   1.778423
     7  H    1.092757   2.135584   2.827671   3.090189   1.792555
     8  H    2.827671   2.135583   1.092757   3.090189   2.654497
     9  H    3.483894   2.137785   1.093522   2.518863   3.807655
    10  H    2.827672   2.135583   1.092757   3.090189   3.203064
                    6          7          8          9         10
     6  H    0.000000
     7  H    1.778422   0.000000
     8  H    3.807655   3.203061   0.000000
     9  H    4.270282   3.807656   1.778423   0.000000
    10  H    3.807656   2.654498   1.792555   1.778423   0.000000
 Stoichiometry    C3H6O
 Framework group  C2[C2(CO),X(C2H6)]
 Deg. of freedom    12
 Full point group                 C2      NOp   2
 Largest Abelian subgroup         C2      NOp   2
 Largest concise Abelian subgroup C2      NOp   2
                         Standard orientation:                         
 ---------------------------------------------------------------------
 Center     Atomic      Atomic             Coordinates (Angstroms)
 Number     Number       Type             X           Y           Z
 ---------------------------------------------------------------------
      1          6           0        0.000000   -1.281148   -0.617588
      2          6           0        0.000000    0.000000    0.171703
      3          6           0        0.000000    1.281148   -0.617588
      4          8           0        0.000000    0.000000    1.401766
      5          1           0       -0.896278   -1.327249   -1.241029
      6          1           0        0.000002   -2.135141    0.065410
      7          1           0        0.896278   -1.327249   -1.241030
      8          1           0       -0.896278    1.327249   -1.241030
      9          1           0       -0.000002    2.135141    0.065410
     10          1           0        0.896278    1.327249   -1.241029
 ---------------------------------------------------------------------
 Rotational constants (GHZ):     10.1080433      8.5772223      4.9333200
 Leave Link  202 at Thu Mar 19 17:38:09 2026, MaxMem=   536870912 cpu:         0.0
 (Enter C:\G09W\l301.exe)
 Standard basis: 6-31G(d) (6D, 7F)
 Ernie: Thresh=  0.10000D-02 Tol=  0.10000D-05 Strict=F.
 There are    39 symmetry adapted cartesian basis functions of A   symmetry.
 There are    33 symmetry adapted cartesian basis functions of B   symmetry.
 There are    39 symmetry adapted basis functions of A   symmetry.
 There are    33 symmetry adapted basis functions of B   symmetry.
    72 basis functions,   136 primitive gaussians,    72 cartesian basis functions
    16 alpha electrons       16 beta electrons
       nuclear repulsion energy       119.3388489259 Hartrees.
 IExCor=  402 DFT=T Ex+Corr=B3LYP ExCW=0 ScaHFX=  0.200000
 ScaDFX=  0.800000  0.720000  1.000000  0.810000 ScalE2=  1.000000  1.000000
 IRadAn=      0 IRanWt=     -1 IRanGd=            0 ICorTp=0 IEmpDi=  4
 NAtoms=   10 NActive=   10 NUniq=    6 SFac= 2.78D+00 NAtFMM=   60 NAOKFM=F Big=F
 Integral buffers will be    131072 words long.
 Raffenetti 2 integral format.
 Two-electron integral symmetry is turned on.
 Leave Link  301 at Thu Mar 19 17:38:09 2026, MaxMem=   536870912 cpu:         0.0
 (Enter C:\G09W\l302.exe)
 NPDir=0 NMtPBC=     1 NCelOv=     1 NCel=       1 NClECP=     1 NCelD=      1
         NCelK=      1 NCelE2=     1 NClLst=     1 CellRange=     0.0.
 One-electron integrals computed using PRISM.
 One-electron integral symmetry used in STVInt
 NBasis=    72 RedAO= T EigKep=  4.53D-03  NBF=    39    33
 NBsUse=    72 1.00D-06 EigRej= -1.00D+00 NBFU=    39    33
 Precomputing XC quadrature grid using
 IXCGrd= 4 IRadAn=           0 IRanWt=          -1 IRanGd=           0 AccXCQ= 0.00D+00.
 Generated NRdTot=       0 NPtTot=           0 NUsed=           0 NTot=          32
 NSgBfM=    72    72    72    72    72 MxSgAt=    10 MxSgA2=    10.
 Leave Link  302 at Thu Mar 19 17:38:09 2026, MaxMem=   536870912 cpu:         0.0
 (Enter C:\G09W\l303.exe)
 DipDrv:  MaxL=1.
 Leave Link  303 at Thu Mar 19 17:38:10 2026, MaxMem=   536870912 cpu:         0.0
 (Enter C:\G09W\l401.exe)
 ExpMin= 1.61D-01 ExpMax= 5.48D+03 ExpMxC= 8.25D+02 IAcc=1 IRadAn=         1 AccDes= 0.00D+00
 Harris functional with IExCor=  402 and IRadAn=       1 diagonalized for initial guess.
 HarFok:  IExCor=  402 AccDes= 0.00D+00 IRadAn=         1 IDoV= 1 UseB2=F ITyADJ=14
 ICtDFT=  3500011 ScaDFX=  1.000000  1.000000  1.000000  1.000000
 FoFCou: FMM=F IPFlag=           0 FMFlag=      100000 FMFlg1=           0
         NFxFlg=           0 DoJE=T BraDBF=F KetDBF=T FulRan=T
         wScrn=  0.000000 ICntrl=     500 IOpCl=  0 I1Cent=   200000004 NGrid=           0
         NMat0=    1 NMatS0=      1 NMatT0=    0 NMatD0=    1 NMtDS0=    0 NMtDT0=    0
 Petite list used in FoFCou.
 Harris En= -193.203650618189    
 JPrj=0 DoOrth=F DoCkMO=F.
 Initial guess orbital symmetries:
       Occupied  (A) (B) (A) (A) (A) (A) (B) (A) (A) (B) (B) (A)
                 (A) (B) (B) (B)
       Virtual   (B) (A) (A) (B) (B) (B) (A) (A) (B) (A) (A) (B)
                 (A) (B) (A) (A) (B) (B) (B) (A) (B) (A) (B) (A)
                 (A) (A) (B) (B) (B) (A) (A) (B) (B) (A) (B) (A)
                 (A) (B) (A) (B) (A) (A) (A) (B) (B) (B) (A) (A)
                 (B) (A) (A) (B) (A) (A) (B) (A)
 The electronic state of the initial guess is 1-A.
 Leave Link  401 at Thu Mar 19 17:38:10 2026, MaxMem=   536870912 cpu:         0.0
 (Enter C:\G09W\l502.exe)
 Closed shell SCF:
 Using DIIS extrapolation, IDIIS=  1040.
 Integral symmetry usage will be decided dynamically.
 Keep R1 ints in memory in symmetry-blocked form, NReq=5224347.
 IVT=       35190 IEndB=       35190 NGot=   536870912 MDV=   535101144
 LenX=   535101144 LenY=   535095519
 Requested convergence on RMS density matrix=1.00D-08 within 128 cycles.
 Requested convergence on MAX density matrix=1.00D-06.
 Requested convergence on             energy=1.00D-06.
 No special actions if energy rises.
 FoFCou: FMM=F IPFlag=           0 FMFlag=           0 FMFlg1=           0
         NFxFlg=           0 DoJE=F BraDBF=F KetDBF=F FulRan=T
         wScrn=  0.000000 ICntrl=     600 IOpCl=  0 I1Cent=           0 NGrid=           0
         NMat0=    1 NMatS0=   2628 NMatT0=    0 NMatD0=    1 NMtDS0=    0 NMtDT0=    0
 Petite list used in FoFCou.
 Integral accuracy reduced to 1.0D-05 until final iterations.

 Cycle   1  Pass 0  IDiag  1:
 E= -192.991172494770    
 DIIS: error= 5.22D-02 at cycle   1 NSaved=   1.
 NSaved= 1 IEnMin= 1 EnMin= -192.991172494770     IErMin= 1 ErrMin= 5.22D-02
 ErrMax= 5.22D-02  0.00D+00 EMaxC= 1.00D-01 BMatC= 1.74D-01 BMatP= 1.74D-01
 IDIUse=3 WtCom= 4.78D-01 WtEn= 5.22D-01
 Coeff-Com:  0.100D+01
 Coeff-En:   0.100D+01
 Coeff:      0.100D+01
 Gap=     0.132 Goal=   None    Shift=    0.000
 GapD=    0.132 DampG=1.000 DampE=0.500 DampFc=0.5000 IDamp=-1.
 Damping current iteration by 5.00D-01
 RMSDP=1.39D-02 MaxDP=1.93D-01              OVMax= 2.97D-01

 Cycle   2  Pass 0  IDiag  1:
 E= -193.050253250390     Delta-E=       -0.059080755620 Rises=F Damp=T
 DIIS: error= 1.50D-02 at cycle   2 NSaved=   2.
 NSaved= 2 IEnMin= 2 EnMin= -193.050253250390     IErMin= 2 ErrMin= 1.50D-02
 ErrMax= 1.50D-02  0.00D+00 EMaxC= 1.00D-01 BMatC= 1.94D-02 BMatP= 1.74D-01
 IDIUse=3 WtCom= 8.50D-01 WtEn= 1.50D-01
 Coeff-Com:  0.180D+00 0.820D+00
 Coeff-En:   0.256D+00 0.744D+00
 Coeff:      0.192D+00 0.808D+00
 Gap=     0.229 Goal=   None    Shift=    0.000
 RMSDP=3.85D-03 MaxDP=5.86D-02 DE=-5.91D-02 OVMax= 2.36D-01

 Cycle   3  Pass 0  IDiag  1:
 E= -193.133545455510     Delta-E=       -0.083292205120 Rises=F Damp=F
 DIIS: error= 1.71D-02 at cycle   3 NSaved=   3.
 NSaved= 3 IEnMin= 3 EnMin= -193.133545455510     IErMin= 2 ErrMin= 1.50D-02
 ErrMax= 1.71D-02  0.00D+00 EMaxC= 1.00D-01 BMatC= 2.43D-02 BMatP= 1.94D-02
 IDIUse=2 WtCom= 0.00D+00 WtEn= 1.00D+00
 Coeff-En:   0.000D+00 0.000D+00 0.100D+01
 Coeff:      0.000D+00 0.000D+00 0.100D+01
 Gap=     0.202 Goal=   None    Shift=    0.000
 RMSDP=5.77D-03 MaxDP=1.09D-01 DE=-8.33D-02 OVMax= 1.97D-01

 Cycle   4  Pass 0  IDiag  1:
 E= -193.051983293101     Delta-E=        0.081562162409 Rises=F Damp=F
 DIIS: error= 4.61D-02 at cycle   4 NSaved=   4.
 NSaved= 4 IEnMin= 3 EnMin= -193.133545455510     IErMin= 2 ErrMin= 1.50D-02
 ErrMax= 4.61D-02  0.00D+00 EMaxC= 1.00D-01 BMatC= 1.28D-01 BMatP= 1.94D-02
 IDIUse=2 WtCom= 0.00D+00 WtEn= 1.00D+00
 Coeff-En:   0.000D+00 0.000D+00 0.779D+00 0.221D+00
 Coeff:      0.000D+00 0.000D+00 0.779D+00 0.221D+00
 Gap=     0.220 Goal=   None    Shift=    0.000
 RMSDP=3.26D-03 MaxDP=5.91D-02 DE= 8.16D-02 OVMax= 1.07D-01

 Cycle   5  Pass 0  IDiag  1:
 E= -193.147938964707     Delta-E=       -0.095955671606 Rises=F Damp=F
 DIIS: error= 1.01D-02 at cycle   5 NSaved=   5.
 NSaved= 5 IEnMin= 5 EnMin= -193.147938964707     IErMin= 5 ErrMin= 1.01D-02
 ErrMax= 1.01D-02  0.00D+00 EMaxC= 1.00D-01 BMatC= 7.81D-03 BMatP= 1.94D-02
 IDIUse=3 WtCom= 8.99D-01 WtEn= 1.01D-01
 Coeff-Com: -0.149D-01 0.414D-01 0.265D+00-0.101D+00 0.810D+00
 Coeff-En:   0.000D+00 0.000D+00 0.286D+00 0.000D+00 0.714D+00
 Coeff:     -0.134D-01 0.372D-01 0.267D+00-0.909D-01 0.800D+00
 Gap=     0.230 Goal=   None    Shift=    0.000
 RMSDP=9.95D-04 MaxDP=1.78D-02 DE=-9.60D-02 OVMax= 3.10D-02

 Cycle   6  Pass 0  IDiag  1:
 E= -193.154513985780     Delta-E=       -0.006575021073 Rises=F Damp=F
 DIIS: error= 3.15D-04 at cycle   6 NSaved=   6.
 NSaved= 6 IEnMin= 6 EnMin= -193.154513985780     IErMin= 6 ErrMin= 3.15D-04
 ErrMax= 3.15D-04  0.00D+00 EMaxC= 1.00D-01 BMatC= 9.59D-06 BMatP= 7.81D-03
 IDIUse=3 WtCom= 9.97D-01 WtEn= 3.15D-03
 Coeff-Com: -0.521D-02 0.100D-01 0.724D-01-0.313D-01 0.259D+00 0.695D+00
 Coeff-En:   0.000D+00 0.000D+00 0.000D+00 0.000D+00 0.000D+00 0.100D+01
 Coeff:     -0.520D-02 0.999D-02 0.722D-01-0.312D-01 0.258D+00 0.696D+00
 Gap=     0.230 Goal=   None    Shift=    0.000
 RMSDP=4.12D-05 MaxDP=8.03D-04 DE=-6.58D-03 OVMax= 1.20D-03

 Cycle   7  Pass 0  IDiag  1:
 E= -193.154521289095     Delta-E=       -0.000007303316 Rises=F Damp=F
 DIIS: error= 7.03D-05 at cycle   7 NSaved=   7.
 NSaved= 7 IEnMin= 7 EnMin= -193.154521289095     IErMin= 7 ErrMin= 7.03D-05
 ErrMax= 7.03D-05  0.00D+00 EMaxC= 1.00D-01 BMatC= 3.19D-07 BMatP= 9.59D-06
 IDIUse=1 WtCom= 1.00D+00 WtEn= 0.00D+00
 Coeff-Com: -0.132D-02 0.187D-02 0.166D-01-0.833D-02 0.674D-01 0.319D+00
 Coeff-Com:  0.605D+00
 Coeff:     -0.132D-02 0.187D-02 0.166D-01-0.833D-02 0.674D-01 0.319D+00
 Coeff:      0.605D+00
 Gap=     0.230 Goal=   None    Shift=    0.000
 RMSDP=1.17D-05 MaxDP=1.53D-04 DE=-7.30D-06 OVMax= 1.61D-04

 Cycle   8  Pass 0  IDiag  1:
 E= -193.154521577057     Delta-E=       -0.000000287961 Rises=F Damp=F
 DIIS: error= 9.61D-06 at cycle   8 NSaved=   8.
 NSaved= 8 IEnMin= 8 EnMin= -193.154521577057     IErMin= 8 ErrMin= 9.61D-06
 ErrMax= 9.61D-06  0.00D+00 EMaxC= 1.00D-01 BMatC= 4.67D-09 BMatP= 3.19D-07
 IDIUse=1 WtCom= 1.00D+00 WtEn= 0.00D+00
 Coeff-Com:  0.227D-04-0.138D-03-0.298D-04-0.292D-03 0.935D-03 0.132D-01
 Coeff-Com:  0.675D-01 0.919D+00
 Coeff:      0.227D-04-0.138D-03-0.298D-04-0.292D-03 0.935D-03 0.132D-01
 Coeff:      0.675D-01 0.919D+00
 Gap=     0.230 Goal=   None    Shift=    0.000
 RMSDP=1.08D-06 MaxDP=1.48D-05 DE=-2.88D-07 OVMax= 1.81D-05

 Initial convergence to 1.0D-05 achieved.  Increase integral accuracy.
 Cycle   9  Pass 1  IDiag  1:
 E= -193.154522024664     Delta-E=       -0.000000447607 Rises=F Damp=F
 DIIS: error= 7.66D-06 at cycle   1 NSaved=   1.
 NSaved= 1 IEnMin= 1 EnMin= -193.154522024664     IErMin= 1 ErrMin= 7.66D-06
 ErrMax= 7.66D-06  0.00D+00 EMaxC= 1.00D-01 BMatC= 4.89D-09 BMatP= 4.89D-09
 IDIUse=1 WtCom= 1.00D+00 WtEn= 0.00D+00
 Coeff-Com:  0.100D+01
 Coeff:      0.100D+01
 Gap=     0.230 Goal=   None    Shift=    0.000
 RMSDP=1.08D-06 MaxDP=1.48D-05 DE=-4.48D-07 OVMax= 3.40D-05

 Cycle  10  Pass 1  IDiag  1:
 E= -193.154522030872     Delta-E=       -0.000000006208 Rises=F Damp=F
 DIIS: error= 2.31D-06 at cycle   2 NSaved=   2.
 NSaved= 2 IEnMin= 2 EnMin= -193.154522030872     IErMin= 2 ErrMin= 2.31D-06
 ErrMax= 2.31D-06  0.00D+00 EMaxC= 1.00D-01 BMatC= 3.82D-10 BMatP= 4.89D-09
 IDIUse=1 WtCom= 1.00D+00 WtEn= 0.00D+00
 Coeff-Com:  0.792D-01 0.921D+00
 Coeff:      0.792D-01 0.921D+00
 Gap=     0.230 Goal=   None    Shift=    0.000
 RMSDP=7.67D-07 MaxDP=1.39D-05 DE=-6.21D-09 OVMax= 2.27D-05

 Cycle  11  Pass 1  IDiag  1:
 E= -193.154522030282     Delta-E=        0.000000000590 Rises=F Damp=F
 DIIS: error= 4.05D-06 at cycle   3 NSaved=   3.
 NSaved= 3 IEnMin= 2 EnMin= -193.154522030872     IErMin= 2 ErrMin= 2.31D-06
 ErrMax= 4.05D-06  0.00D+00 EMaxC= 1.00D-01 BMatC= 1.21D-09 BMatP= 3.82D-10
 IDIUse=1 WtCom= 1.00D+00 WtEn= 0.00D+00
 Coeff-Com: -0.155D-01 0.655D+00 0.361D+00
 Coeff:     -0.155D-01 0.655D+00 0.361D+00
 Gap=     0.230 Goal=   None    Shift=    0.000
 RMSDP=4.42D-07 MaxDP=8.95D-06 DE= 5.90D-10 OVMax= 1.46D-05

 Cycle  12  Pass 1  IDiag  1:
 E= -193.154522031213     Delta-E=       -0.000000000931 Rises=F Damp=F
 DIIS: error= 4.63D-07 at cycle   4 NSaved=   4.
 NSaved= 4 IEnMin= 4 EnMin= -193.154522031213     IErMin= 4 ErrMin= 4.63D-07
 ErrMax= 4.63D-07  0.00D+00 EMaxC= 1.00D-01 BMatC= 1.62D-11 BMatP= 3.82D-10
 IDIUse=1 WtCom= 1.00D+00 WtEn= 0.00D+00
 Coeff-Com: -0.113D-01 0.241D+00 0.166D+00 0.605D+00
 Coeff:     -0.113D-01 0.241D+00 0.166D+00 0.605D+00
 Gap=     0.230 Goal=   None    Shift=    0.000
 RMSDP=7.15D-08 MaxDP=7.48D-07 DE=-9.31D-10 OVMax= 1.26D-06

 Cycle  13  Pass 1  IDiag  1:
 E= -193.154522031227     Delta-E=       -0.000000000014 Rises=F Damp=F
 DIIS: error= 8.92D-08 at cycle   5 NSaved=   5.
 NSaved= 5 IEnMin= 5 EnMin= -193.154522031227     IErMin= 5 ErrMin= 8.92D-08
 ErrMax= 8.92D-08  0.00D+00 EMaxC= 1.00D-01 BMatC= 5.12D-13 BMatP= 1.62D-11
 IDIUse=1 WtCom= 1.00D+00 WtEn= 0.00D+00
 Coeff-Com: -0.374D-02 0.643D-01 0.472D-01 0.226D+00 0.667D+00
 Coeff:     -0.374D-02 0.643D-01 0.472D-01 0.226D+00 0.667D+00
 Gap=     0.230 Goal=   None    Shift=    0.000
 RMSDP=1.27D-08 MaxDP=1.89D-07 DE=-1.40D-11 OVMax= 1.96D-07

 Cycle  14  Pass 1  IDiag  1:
 E= -193.154522031228     Delta-E=       -0.000000000002 Rises=F Damp=F
 DIIS: error= 1.88D-08 at cycle   6 NSaved=   6.
 NSaved= 6 IEnMin= 6 EnMin= -193.154522031228     IErMin= 6 ErrMin= 1.88D-08
 ErrMax= 1.88D-08  0.00D+00 EMaxC= 1.00D-01 BMatC= 2.86D-14 BMatP= 5.12D-13
 IDIUse=1 WtCom= 1.00D+00 WtEn= 0.00D+00
 Coeff-Com: -0.368D-03 0.194D-02 0.273D-02 0.226D-01 0.216D+00 0.757D+00
 Coeff:     -0.368D-03 0.194D-02 0.273D-02 0.226D-01 0.216D+00 0.757D+00
 Gap=     0.230 Goal=   None    Shift=    0.000
 RMSDP=2.85D-09 MaxDP=3.58D-08 DE=-1.82D-12 OVMax= 4.25D-08

 SCF Done:  E(RB3LYP) =  -193.154522031     A.U. after   14 cycles
            NFock= 14  Conv=0.28D-08     -V/T= 2.0093
 KE= 1.913718538983D+02 PE=-6.886943282155D+02 EE= 1.848291033600D+02
 Leave Link  502 at Thu Mar 19 17:38:13 2026, MaxMem=   536870912 cpu:         3.0
 (Enter C:\G09W\l601.exe)
 Copying SCF densities to generalized density rwf, IOpCl= 0 IROHF=0.

 **********************************************************************

            Population analysis using the SCF density.

 **********************************************************************

 Orbital symmetries:
       Occupied  (A) (A) (B) (A) (A) (A) (B) (A) (B) (B) (A) (A)
                 (A) (B) (B) (B)
       Virtual   (B) (A) (A) (B) (B) (A) (B) (A) (B) (A) (A) (B)
                 (A) (A) (B) (A) (B) (B) (B) (A) (B) (A) (B) (A)
                 (A) (A) (B) (B) (B) (A) (A) (B) (B) (A) (A) (B)
                 (A) (B) (A) (B) (A) (A) (A) (B) (B) (B) (A) (A)
                 (B) (A) (A) (B) (A) (A) (B) (A)
 The electronic state is 1-A.
 Alpha  occ. eigenvalues --  -19.13332 -10.27558 -10.19002 -10.19001  -1.02639
 Alpha  occ. eigenvalues --   -0.77231  -0.71231  -0.53055  -0.46471  -0.45414
 Alpha  occ. eigenvalues --   -0.44733  -0.41154  -0.38743  -0.37690  -0.34260
 Alpha  occ. eigenvalues --   -0.24266
 Alpha virt. eigenvalues --   -0.01267   0.08643   0.13420   0.14845   0.16029
 Alpha virt. eigenvalues --    0.17487   0.18023   0.20447   0.29034   0.32491
 Alpha virt. eigenvalues --    0.49147   0.54411   0.56346   0.56639   0.57467
 Alpha virt. eigenvalues --    0.67776   0.70216   0.71689   0.76186   0.79402
 Alpha virt. eigenvalues --    0.84175   0.87823   0.89016   0.89144   0.92184
 Alpha virt. eigenvalues --    0.93467   0.96019   1.01935   1.10095   1.17929
 Alpha virt. eigenvalues --    1.40471   1.41993   1.44102   1.55654   1.77790
 Alpha virt. eigenvalues --    1.78583   1.79765   1.80976   1.90964   1.93931
 Alpha virt. eigenvalues --    2.03470   2.07965   2.12032   2.20433   2.20517
 Alpha virt. eigenvalues --    2.36202   2.41172   2.48893   2.58839   2.69847
 Alpha virt. eigenvalues --    2.94531   2.97716   3.93831   4.09788   4.27337
 Alpha virt. eigenvalues --    4.44120
          Condensed to atoms (all electrons):
               1          2          3          4          5          6
     1  C    5.384505   0.312016  -0.151907  -0.086341   0.350096   0.348750
     2  C    0.312016   4.449374   0.312016   0.606178  -0.021804  -0.018979
     3  C   -0.151907   0.312016   5.384505  -0.086341   0.003464   0.006616
     4  O   -0.086341   0.606178  -0.086341   7.984296   0.001545   0.005829
     5  H    0.350096  -0.021804   0.003464   0.001545   0.545221  -0.022281
     6  H    0.348750  -0.018979   0.006616   0.005829  -0.022281   0.521759
     7  H    0.350096  -0.021804   0.003464   0.001545  -0.024257  -0.022281
     8  H    0.003464  -0.021804   0.350096   0.001545   0.001235  -0.000133
     9  H    0.006616  -0.018979   0.348750   0.005829  -0.000133  -0.000200
    10  H    0.003464  -0.021804   0.350096   0.001545  -0.000449  -0.000133
               7          8          9         10
     1  C    0.350096   0.003464   0.006616   0.003464
     2  C   -0.021804  -0.021804  -0.018979  -0.021804
     3  C    0.003464   0.350096   0.348750   0.350096
     4  O    0.001545   0.001545   0.005829   0.001545
     5  H   -0.024257   0.001235  -0.000133  -0.000449
     6  H   -0.022281  -0.000133  -0.000200  -0.000133
     7  H    0.545221  -0.000449  -0.000133   0.001235
     8  H   -0.000449   0.545221  -0.022281  -0.024257
     9  H   -0.000133  -0.022281   0.521759  -0.022281
    10  H    0.001235  -0.024257  -0.022281   0.545221
 Mulliken charges:
               1
     1  C   -0.520759
     2  C    0.445589
     3  C   -0.520759
     4  O   -0.435631
     5  H    0.167363
     6  H    0.181054
     7  H    0.167363
     8  H    0.167363
     9  H    0.181054
    10  H    0.167363
 Sum of Mulliken charges =   0.00000
 Mulliken charges with hydrogens summed into heavy atoms:
               1
     1  C   -0.004979
     2  C    0.445589
     3  C   -0.004979
     4  O   -0.435631
 Electronic spatial extent (au):  <R**2>=            290.8946
 Charge=              0.0000 electrons
 Dipole moment (field-independent basis, Debye):
    X=              0.0000    Y=              0.0000    Z=             -2.8658  Tot=              2.8658
 Quadrupole moment (field-independent basis, Debye-Ang):
   XX=            -23.6578   YY=            -23.4895   ZZ=            -28.4687
   XY=              0.0000   XZ=              0.0000   YZ=              0.0000
 Traceless Quadrupole moment (field-independent basis, Debye-Ang):
   XX=              1.5475   YY=              1.7159   ZZ=             -3.2634
   XY=              0.0000   XZ=              0.0000   YZ=              0.0000
 Octapole moment (field-independent basis, Debye-Ang**2):
  XXX=              0.0000  YYY=              0.0000  ZZZ=             -1.3220  XYY=              0.0000
  XXY=              0.0000  XXZ=              0.1654  XZZ=              0.0000  YZZ=              0.0000
  YYZ=              2.4130  XYZ=              0.0000
 Hexadecapole moment (field-independent basis, Debye-Ang**3):
 XXXX=            -35.1044 YYYY=           -192.2854 ZZZZ=           -147.9333 XXXY=              0.0000
 XXXZ=              0.0000 YYYX=              0.0000 YYYZ=              0.0000 ZZZX=              0.0000
 ZZZY=              0.0000 XXYY=            -38.5244 XXZZ=            -26.3653 YYZZ=            -56.8223
 XXYZ=              0.0000 YYXZ=              0.0000 ZZXY=              0.0000
 N-N= 1.193388489259D+02 E-N=-6.886943293888D+02  KE= 1.913718538983D+02
 Symmetry A    KE= 1.417466397695D+02
 Symmetry B    KE= 4.962521412885D+01
 No NMR shielding tensors so no spin-rotation constants.
 Leave Link  601 at Thu Mar 19 17:38:14 2026, MaxMem=   536870912 cpu:         0.0
 (Enter C:\G09W\l701.exe)
 Compute integral first derivatives.
 ... and contract with generalized density number  0.
 Leave Link  701 at Thu Mar 19 17:38:14 2026, MaxMem=   536870912 cpu:         0.0
 (Enter C:\G09W\l702.exe)
 L702 exits ... SP integral derivatives will be done elsewhere.
 Leave Link  702 at Thu Mar 19 17:38:15 2026, MaxMem=   536870912 cpu:         1.0
 (Enter C:\G09W\l703.exe)
 Compute integral first derivatives, UseDBF=F ICtDFT=           0.
 Integral derivatives from FoFJK, PRISM(SPDF).
 Calling FoFJK, ICntrl=      2127 FMM=F ISym2X=1 I1Cent= 0 IOpClX= 0 NMat=1 NMatS=1 NMatT=0.
 FoFJK:  IHMeth= 1 ICntrl=    2127 DoSepK=F KAlg= 0 I1Cent=   0 FoldK=F
 IRaf=         0 NMat=   1 IRICut=       1 DoRegI=T DoRafI=F ISym2E= 1.
 FoFCou: FMM=F IPFlag=           0 FMFlag=      100000 FMFlg1=         800
         NFxFlg=           0 DoJE=F BraDBF=F KetDBF=F FulRan=T
         wScrn=  0.000000 ICntrl=    2127 IOpCl=  0 I1Cent=           0 NGrid=           0
         NMat0=    1 NMatS0=      1 NMatT0=    0 NMatD0=    1 NMtDS0=    0 NMtDT0=    0
 Petite list used in FoFCou.
 Leave Link  703 at Thu Mar 19 17:38:15 2026, MaxMem=   536870912 cpu:         0.0
 (Enter C:\G09W\l716.exe)
 Dipole        = 2.22044605D-16-2.22044605D-15-1.12748816D+00
 ***** Axes restored to original set *****
 -------------------------------------------------------------------
 Center     Atomic                   Forces (Hartrees/Bohr)
 Number     Number              X              Y              Z
 -------------------------------------------------------------------
      1        6          -0.005699227    0.004680025   -0.004186989
      2        6           0.001667544    0.021786970   -0.019088722
      3        6           0.006382162    0.004242722   -0.003630704
      4        8          -0.001073315   -0.014023182    0.012286455
      5        1          -0.001271312   -0.003642842    0.004060307
      6        1           0.000799708   -0.000143019    0.000136775
      7        1          -0.001256857   -0.004518170    0.003062472
      8        1           0.000626979   -0.003711379    0.004147873
      9        1          -0.000817113   -0.000084380    0.000062461
     10        1           0.000641431   -0.004586746    0.003150072
 -------------------------------------------------------------------
 Cartesian Forces:  Max     0.021786970 RMS     0.006979177
 Leave Link  716 at Thu Mar 19 17:38:16 2026, MaxMem=   536870912 cpu:         0.0
 (Enter C:\G09W\l103.exe)

 GradGradGradGradGradGradGradGradGradGradGradGradGradGradGradGradGradGrad
 Berny optimization.
 FormGI is forming the generalized inverse of G from B-inverse, IUseBI=4.
 Internal  Forces:  Max     0.018675079 RMS     0.004278927
 Search for a local minimum.
 Step number   1 out of a maximum of   46
 All quantities printed in internal units (Hartrees-Bohrs-Radians)
 RMS Force = .42789D-02 SwitMx=.10000D-02 MixMth= 1
 Mixed Optimization -- RFO/linear search
 Second derivative matrix not updated -- first step.
 ITU=  0
     Eigenvalues ---    0.00703   0.00703   0.00703   0.07445   0.07445
     Eigenvalues ---    0.07497   0.07497   0.16000   0.16000   0.16000
     Eigenvalues ---    0.16000   0.16000   0.16000   0.25000   0.25000
     Eigenvalues ---    0.31882   0.31882   0.34409   0.34409   0.34496
     Eigenvalues ---    0.34496   0.34496   0.34496   0.91060
 RFO step:  Lambda=-1.95823902D-03 EMin= 7.02903874D-03
 Linear search not attempted -- first point.
 Iteration  1 RMS(Cart)=  0.02036774 RMS(Int)=  0.00022813
 Iteration  2 RMS(Cart)=  0.00021552 RMS(Int)=  0.00006230
 Iteration  3 RMS(Cart)=  0.00000001 RMS(Int)=  0.00006230
 ITry= 1 IFail=0 DXMaxC= 3.89D-02 DCOld= 1.00D+10 DXMaxT= 3.00D-01 DXLimC= 3.00D+00 Rises=F
 ClnCor:  largest displacement from symmetrization is 1.31D-10 for atom     9.
 Variable       Old X    -DE/DX   Delta X   Delta X   Delta X     New X
                                 (Linear)    (Quad)   (Total)
    R1        2.84360   0.00879   0.00000   0.02741   0.02741   2.87101
    R2        2.06501   0.00262   0.00000   0.00756   0.00756   2.07257
    R3        2.06646  -0.00073   0.00000  -0.00210  -0.00210   2.06436
    R4        2.06501   0.00262   0.00000   0.00756   0.00756   2.07257
    R5        2.84360   0.00879   0.00000   0.02741   0.02741   2.87101
    R6        2.32448  -0.01868   0.00000  -0.02046  -0.02046   2.30402
    R7        2.06501   0.00262   0.00000   0.00756   0.00756   2.07257
    R8        2.06646  -0.00073   0.00000  -0.00210  -0.00210   2.06436
    R9        2.06501   0.00262   0.00000   0.00756   0.00756   2.07257
    A1        1.91258   0.00323   0.00000   0.01648   0.01644   1.92902
    A2        1.91483  -0.00079   0.00000   0.00198   0.00185   1.91668
    A3        1.91258   0.00323   0.00000   0.01648   0.01644   1.92902
    A4        1.90011   0.00001   0.00000   0.00694   0.00681   1.90692
    A5        1.92352  -0.00574   0.00000  -0.04891  -0.04888   1.87464
    A6        1.90011   0.00001   0.00000   0.00694   0.00681   1.90692
    A7        2.03727   0.00015   0.00000   0.00059   0.00059   2.03787
    A8        2.12296  -0.00007   0.00000  -0.00030  -0.00030   2.12266
    A9        2.12296  -0.00007   0.00000  -0.00030  -0.00030   2.12266
   A10        1.91258   0.00323   0.00000   0.01648   0.01644   1.92902
   A11        1.91483  -0.00079   0.00000   0.00198   0.00185   1.91668
   A12        1.91258   0.00323   0.00000   0.01648   0.01644   1.92902
   A13        1.90011   0.00001   0.00000   0.00694   0.00681   1.90692
   A14        1.92352  -0.00574   0.00000  -0.04891  -0.04888   1.87464
   A15        1.90011   0.00001   0.00000   0.00694   0.00681   1.90692
    D1       -1.05633   0.00151   0.00000   0.01981   0.01987  -1.03646
    D2        2.08527   0.00151   0.00000   0.01981   0.01987   2.10514
    D3        3.14159   0.00000   0.00000   0.00000   0.00000   3.14159
    D4        0.00000   0.00000   0.00000   0.00000   0.00000   0.00000
    D5        1.05633  -0.00151   0.00000  -0.01981  -0.01987   1.03646
    D6       -2.08527  -0.00151   0.00000  -0.01981  -0.01987  -2.10514
    D7        1.05633  -0.00151   0.00000  -0.01981  -0.01987   1.03646
    D8        3.14159   0.00000   0.00000   0.00000   0.00000   3.14159
    D9       -1.05633   0.00151   0.00000   0.01981   0.01987  -1.03646
   D10       -2.08527  -0.00151   0.00000  -0.01981  -0.01987  -2.10514
   D11        0.00000   0.00000   0.00000   0.00000   0.00000   0.00000
   D12        2.08527   0.00151   0.00000   0.01981   0.01987   2.10514
         Item               Value     Threshold  Converged?
 Maximum Force            0.018675     0.000450     NO 
 RMS     Force            0.004279     0.000300     NO 
 Maximum Displacement     0.038933     0.001800     NO 
 RMS     Displacement     0.020420     0.001200     NO 
 Predicted change in Energy=-9.918345D-04
 Lowest energy point so far.  Saving SCF results.
 GradGradGradGradGradGradGradGradGradGradGradGradGradGradGradGradGradGrad

 Leave Link  103 at Thu Mar 19 17:38:16 2026, MaxMem=   536870912 cpu:         0.0
 (Enter C:\G09W\l202.exe)
                          Input orientation:                          
 ---------------------------------------------------------------------
 Center     Atomic      Atomic             Coordinates (Angstroms)
 Number     Number       Type             X           Y           Z
 ---------------------------------------------------------------------
      1          6           0       -1.300636   -0.072387    0.044837
      2          6           0        0.036663    0.479008   -0.419685
      3          6           0        1.282405   -0.165809    0.163858
      4          8           0        0.106736    1.394535   -1.221826
      5          1           0       -1.381403   -1.139235   -0.196383
      6          1           0       -2.114217    0.469805   -0.442475
      7          1           0       -1.400473    0.026572    1.132548
      8          1           0        1.307867   -1.236499   -0.072467
      9          1           0        2.174262    0.314701   -0.244873
     10          1           0        1.288797   -0.070692    1.256464
 ---------------------------------------------------------------------
                    Distance matrix (angstroms):
                    1          2          3          4          5
     1  C    0.000000
     2  C    1.519271   0.000000
     3  C    2.587468   1.519271   0.000000
     4  O    2.395201   1.219233   2.395201   0.000000
     5  H    1.096757   2.163212   2.858882   3.112247   0.000000
     6  H    1.092410   2.151020   3.508373   2.528862   1.785101
     7  H    1.096757   2.163212   2.858881   3.112247   1.767916
     8  H    2.858881   2.163212   1.096757   3.112247   2.693880
     9  H    3.508373   2.151020   1.092410   2.528862   3.841749
    10  H    2.858882   2.163212   1.096757   3.112247   3.222192
                    6          7          8          9         10
     6  H    0.000000
     7  H    1.785101   0.000000
     8  H    3.841749   3.222191   0.000000
     9  H    4.295830   3.841749   1.785101   0.000000
    10  H    3.841749   2.693880   1.767916   1.785101   0.000000
 Stoichiometry    C3H6O
 Framework group  C2[C2(CO),X(C2H6)]
 Deg. of freedom    12
 Full point group                 C2      NOp   2
 RotChk:  IX=3 Diff= 3.20D-07
 Largest Abelian subgroup         C2      NOp   2
 Largest concise Abelian subgroup C2      NOp   2
                         Standard orientation:                         
 ---------------------------------------------------------------------
 Center     Atomic      Atomic             Coordinates (Angstroms)
 Number     Number       Type             X           Y           Z
 ---------------------------------------------------------------------
      1          6           0        0.000000   -1.293734   -0.614965
      2          6           0        0.000000    0.000000    0.181551
      3          6           0        0.000000    1.293734   -0.614965
      4          8           0        0.000000    0.000000    1.400784
      5          1           0       -0.883958   -1.346940   -1.262006
      6          1           0        0.000001   -2.147915    0.066016
      7          1           0        0.883958   -1.346940   -1.262007
      8          1           0       -0.883958    1.346940   -1.262007
      9          1           0       -0.000001    2.147915    0.066016
     10          1           0        0.883958    1.346940   -1.262006
 ---------------------------------------------------------------------
 Rotational constants (GHZ):     10.1020029      8.4324009      4.8753228
 Leave Link  202 at Thu Mar 19 17:38:16 2026, MaxMem=   536870912 cpu:         0.0
 (Enter C:\G09W\l301.exe)
 Standard basis: 6-31G(d) (6D, 7F)
 Ernie: Thresh=  0.10000D-02 Tol=  0.10000D-05 Strict=F.
 There are    39 symmetry adapted cartesian basis functions of A   symmetry.
 There are    33 symmetry adapted cartesian basis functions of B   symmetry.
 There are    39 symmetry adapted basis functions of A   symmetry.
 There are    33 symmetry adapted basis functions of B   symmetry.
    72 basis functions,   136 primitive gaussians,    72 cartesian basis functions
    16 alpha electrons       16 beta electrons
       nuclear repulsion energy       118.9208252698 Hartrees.
 IExCor=  402 DFT=T Ex+Corr=B3LYP ExCW=0 ScaHFX=  0.200000
 ScaDFX=  0.800000  0.720000  1.000000  0.810000 ScalE2=  1.000000  1.000000
 IRadAn=      0 IRanWt=     -1 IRanGd=            0 ICorTp=0 IEmpDi=  4
 NAtoms=   10 NActive=   10 NUniq=    6 SFac= 2.78D+00 NAtFMM=   60 NAOKFM=F Big=F
 Integral buffers will be    131072 words long.
 Raffenetti 2 integral format.
 Two-electron integral symmetry is turned on.
 Leave Link  301 at Thu Mar 19 17:38:17 2026, MaxMem=   536870912 cpu:         0.0
 (Enter C:\G09W\l302.exe)
 NPDir=0 NMtPBC=     1 NCelOv=     1 NCel=       1 NClECP=     1 NCelD=      1
         NCelK=      1 NCelE2=     1 NClLst=     1 CellRange=     0.0.
 One-electron integrals computed using PRISM.
 One-electron integral symmetry used in STVInt
 NBasis=    72 RedAO= T EigKep=  4.80D-03  NBF=    39    33
 NBsUse=    72 1.00D-06 EigRej= -1.00D+00 NBFU=    39    33
 Precomputing XC quadrature grid using
 IXCGrd= 4 IRadAn=           0 IRanWt=          -1 IRanGd=           0 AccXCQ= 0.00D+00.
 Generated NRdTot=       0 NPtTot=           0 NUsed=           0 NTot=          32
 NSgBfM=    72    72    72    72    72 MxSgAt=    10 MxSgA2=    10.
 Leave Link  302 at Thu Mar 19 17:38:17 2026, MaxMem=   536870912 cpu:         0.0
 (Enter C:\G09W\l303.exe)
 DipDrv:  MaxL=1.
 Leave Link  303 at Thu Mar 19 17:38:18 2026, MaxMem=   536870912 cpu:         0.0
 (Enter C:\G09W\l401.exe)
 Initial guess from the checkpoint file:  "acetone_rdkit.chk"
 B after Tr=     0.000000    0.000000    0.000000
         Rot=    1.000000    0.000000    0.000000    0.000000 Ang=   0.00 deg.
 Guess basis will be translated and rotated to current coordinates.
 JPrj=2 DoOrth=T DoCkMO=T.
 Initial guess orbital symmetries:
       Occupied  (A) (A) (B) (A) (A) (A) (B) (A) (B) (B) (A) (A)
                 (A) (B) (B) (B)
       Virtual   (A) (A) (A) (A) (A) (A) (A) (A) (A) (A) (A) (A)
                 (A) (A) (A) (A) (A) (A) (A) (A) (A) (A) (A) (A)
                 (A) (A) (A) (A) (A) (A) (B) (B) (B) (B) (B) (B)
                 (B) (B) (B) (B) (B) (B) (B) (B) (B) (B) (B) (B)
                 (B) (B) (B) (B) (B) (B) (B) (B)
 The electronic state of the initial guess is 1-A.
 Generating alternative initial guess.
 ExpMin= 1.61D-01 ExpMax= 5.48D+03 ExpMxC= 8.25D+02 IAcc=1 IRadAn=         1 AccDes= 0.00D+00
 Harris functional with IExCor=  402 and IRadAn=       1 diagonalized for initial guess.
 HarFok:  IExCor=  402 AccDes= 0.00D+00 IRadAn=         1 IDoV= 1 UseB2=F ITyADJ=14
 ICtDFT=  3500011 ScaDFX=  1.000000  1.000000  1.000000  1.000000
 FoFCou: FMM=F IPFlag=           0 FMFlag=      100000 FMFlg1=           0
         NFxFlg=           0 DoJE=T BraDBF=F KetDBF=T FulRan=T
         wScrn=  0.000000 ICntrl=     500 IOpCl=  0 I1Cent=   200000004 NGrid=           0
         NMat0=    1 NMatS0=      1 NMatT0=    0 NMatD0=    1 NMtDS0=    0 NMtDT0=    0
 Petite list used in FoFCou.
 Harris En= -193.203204933683    
 Leave Link  401 at Thu Mar 19 17:38:18 2026, MaxMem=   536870912 cpu:         0.0
 (Enter C:\G09W\l502.exe)
 Closed shell SCF:
 Using DIIS extrapolation, IDIIS=  1040.
 Integral symmetry usage will be decided dynamically.
 Keep R1 ints in memory in symmetry-blocked form, NReq=5224347.
 IVT=       35190 IEndB=       35190 NGot=   536870912 MDV=   535101144
 LenX=   535101144 LenY=   535095519
 Requested convergence on RMS density matrix=1.00D-08 within 128 cycles.
 Requested convergence on MAX density matrix=1.00D-06.
 Requested convergence on             energy=1.00D-06.
 No special actions if energy rises.
 FoFCou: FMM=F IPFlag=           0 FMFlag=           0 FMFlg1=           0
         NFxFlg=           0 DoJE=F BraDBF=F KetDBF=F FulRan=T
         wScrn=  0.000000 ICntrl=     600 IOpCl=  0 I1Cent=           0 NGrid=           0
         NMat0=    1 NMatS0=   2628 NMatT0=    0 NMatD0=    1 NMtDS0=    0 NMtDT0=    0
 Petite list used in FoFCou.
 Integral accuracy reduced to 1.0D-05 until final iterations.

 Cycle   1  Pass 0  IDiag  1:
 E= -193.155355167778    
 DIIS: error= 1.31D-03 at cycle   1 NSaved=   1.
 NSaved= 1 IEnMin= 1 EnMin= -193.155355167778     IErMin= 1 ErrMin= 1.31D-03
 ErrMax= 1.31D-03  0.00D+00 EMaxC= 1.00D-01 BMatC= 2.17D-04 BMatP= 2.17D-04
 IDIUse=3 WtCom= 9.87D-01 WtEn= 1.31D-02
 Coeff-Com:  0.100D+01
 Coeff-En:   0.100D+01
 Coeff:      0.100D+01
 Gap=     1.274 Goal=   None    Shift=    0.000
 GapD=    1.274 DampG=2.000 DampE=1.000 DampFc=2.0000 IDamp=-1.
 RMSDP=3.74D-04 MaxDP=4.63D-03              OVMax= 5.64D-03

 Cycle   2  Pass 0  IDiag  1:
 E= -193.155567367404     Delta-E=       -0.000212199626 Rises=F Damp=F
 DIIS: error= 1.25D-03 at cycle   2 NSaved=   2.
 NSaved= 2 IEnMin= 2 EnMin= -193.155567367404     IErMin= 2 ErrMin= 1.25D-03
 ErrMax= 1.25D-03  0.00D+00 EMaxC= 1.00D-01 BMatC= 1.15D-04 BMatP= 2.17D-04
 IDIUse=3 WtCom= 9.87D-01 WtEn= 1.25D-02
 Coeff-Com:  0.387D+00 0.613D+00
 Coeff-En:   0.000D+00 0.100D+01
 Coeff:      0.382D+00 0.618D+00
 Gap=     0.231 Goal=   None    Shift=    0.000
 RMSDP=2.09D-04 MaxDP=4.58D-03 DE=-2.12D-04 OVMax= 7.07D-03

 Cycle   3  Pass 0  IDiag  1:
 E= -193.155577294692     Delta-E=       -0.000009927287 Rises=F Damp=F
 DIIS: error= 1.21D-03 at cycle   3 NSaved=   3.
 NSaved= 3 IEnMin= 3 EnMin= -193.155577294692     IErMin= 3 ErrMin= 1.21D-03
 ErrMax= 1.21D-03  0.00D+00 EMaxC= 1.00D-01 BMatC= 9.95D-05 BMatP= 1.15D-04
 IDIUse=3 WtCom= 9.88D-01 WtEn= 1.21D-02
 Coeff-Com:  0.224D-01 0.477D+00 0.500D+00
 Coeff-En:   0.000D+00 0.477D+00 0.523D+00
 Coeff:      0.221D-01 0.477D+00 0.501D+00
 Gap=     0.232 Goal=   None    Shift=    0.000
 RMSDP=1.27D-04 MaxDP=2.63D-03 DE=-9.93D-06 OVMax= 4.33D-03

 Cycle   4  Pass 0  IDiag  1:
 E= -193.155653995968     Delta-E=       -0.000076701276 Rises=F Damp=F
 DIIS: error= 1.56D-04 at cycle   4 NSaved=   4.
 NSaved= 4 IEnMin= 4 EnMin= -193.155653995968     IErMin= 4 ErrMin= 1.56D-04
 ErrMax= 1.56D-04  0.00D+00 EMaxC= 1.00D-01 BMatC= 1.71D-06 BMatP= 9.95D-05
 IDIUse=3 WtCom= 9.98D-01 WtEn= 1.56D-03
 Coeff-Com: -0.859D-02 0.173D+00 0.231D+00 0.605D+00
 Coeff-En:   0.000D+00 0.000D+00 0.000D+00 0.100D+01
 Coeff:     -0.857D-02 0.172D+00 0.231D+00 0.606D+00
 Gap=     0.232 Goal=   None    Shift=    0.000
 RMSDP=1.80D-05 MaxDP=2.17D-04 DE=-7.67D-05 OVMax= 3.93D-04

 Cycle   5  Pass 0  IDiag  1:
 E= -193.155655374922     Delta-E=       -0.000001378954 Rises=F Damp=F
 DIIS: error= 4.40D-05 at cycle   5 NSaved=   5.
 NSaved= 5 IEnMin= 5 EnMin= -193.155655374922     IErMin= 5 ErrMin= 4.40D-05
 ErrMax= 4.40D-05  0.00D+00 EMaxC= 1.00D-01 BMatC= 9.51D-08 BMatP= 1.71D-06
 IDIUse=1 WtCom= 1.00D+00 WtEn= 0.00D+00
 Coeff-Com: -0.529D-02 0.399D-01 0.714D-01 0.258D+00 0.636D+00
 Coeff:     -0.529D-02 0.399D-01 0.714D-01 0.258D+00 0.636D+00
 Gap=     0.232 Goal=   None    Shift=    0.000
 RMSDP=4.69D-06 MaxDP=5.52D-05 DE=-1.38D-06 OVMax= 7.33D-05

 Initial convergence to 1.0D-05 achieved.  Increase integral accuracy.
 Cycle   6  Pass 1  IDiag  1:
 E= -193.155649340639     Delta-E=        0.000006034282 Rises=F Damp=F
 DIIS: error= 8.78D-06 at cycle   1 NSaved=   1.
 NSaved= 1 IEnMin= 1 EnMin= -193.155649340639     IErMin= 1 ErrMin= 8.78D-06
 ErrMax= 8.78D-06  0.00D+00 EMaxC= 1.00D-01 BMatC= 5.03D-09 BMatP= 5.03D-09
 IDIUse=1 WtCom= 1.00D+00 WtEn= 0.00D+00
 Coeff-Com:  0.100D+01
 Coeff:      0.100D+01
 Gap=     0.232 Goal=   None    Shift=    0.000
 RMSDP=4.69D-06 MaxDP=5.52D-05 DE= 6.03D-06 OVMax= 3.72D-05

 Cycle   7  Pass 1  IDiag  1:
 E= -193.155649346680     Delta-E=       -0.000000006041 Rises=F Damp=F
 DIIS: error= 3.93D-06 at cycle   2 NSaved=   2.
 NSaved= 2 IEnMin= 2 EnMin= -193.155649346680     IErMin= 2 ErrMin= 3.93D-06
 ErrMax= 3.93D-06  0.00D+00 EMaxC= 1.00D-01 BMatC= 1.07D-09 BMatP= 5.03D-09
 IDIUse=1 WtCom= 1.00D+00 WtEn= 0.00D+00
 Coeff-Com:  0.227D+00 0.773D+00
 Coeff:      0.227D+00 0.773D+00
 Gap=     0.232 Goal=   None    Shift=    0.000
 RMSDP=6.75D-07 MaxDP=1.18D-05 DE=-6.04D-09 OVMax= 1.50D-05

 Cycle   8  Pass 1  IDiag  1:
 E= -193.155649346935     Delta-E=       -0.000000000255 Rises=F Damp=F
 DIIS: error= 4.15D-06 at cycle   3 NSaved=   3.
 NSaved= 3 IEnMin= 3 EnMin= -193.155649346935     IErMin= 2 ErrMin= 3.93D-06
 ErrMax= 4.15D-06  0.00D+00 EMaxC= 1.00D-01 BMatC= 9.02D-10 BMatP= 1.07D-09
 IDIUse=1 WtCom= 1.00D+00 WtEn= 0.00D+00
 Coeff-Com:  0.920D-02 0.476D+00 0.515D+00
 Coeff:      0.920D-02 0.476D+00 0.515D+00
 Gap=     0.232 Goal=   None    Shift=    0.000
 RMSDP=3.66D-07 MaxDP=8.48D-06 DE=-2.55D-10 OVMax= 1.33D-05

 Cycle   9  Pass 1  IDiag  1:
 E= -193.155649347546     Delta-E=       -0.000000000611 Rises=F Damp=F
 DIIS: error= 1.38D-06 at cycle   4 NSaved=   4.
 NSaved= 4 IEnMin= 4 EnMin= -193.155649347546     IErMin= 4 ErrMin= 1.38D-06
 ErrMax= 1.38D-06  0.00D+00 EMaxC= 1.00D-01 BMatC= 1.42D-10 BMatP= 9.02D-10
 IDIUse=1 WtCom= 1.00D+00 WtEn= 0.00D+00
 Coeff-Com: -0.106D-01 0.246D+00 0.346D+00 0.418D+00
 Coeff:     -0.106D-01 0.246D+00 0.346D+00 0.418D+00
 Gap=     0.232 Goal=   None    Shift=    0.000
 RMSDP=1.82D-07 MaxDP=2.93D-06 DE=-6.11D-10 OVMax= 4.92D-06

 Cycle  10  Pass 1  IDiag  1:
 E= -193.155649347662     Delta-E=       -0.000000000116 Rises=F Damp=F
 DIIS: error= 1.43D-07 at cycle   5 NSaved=   5.
 NSaved= 5 IEnMin= 5 EnMin= -193.155649347662     IErMin= 5 ErrMin= 1.43D-07
 ErrMax= 1.43D-07  0.00D+00 EMaxC= 1.00D-01 BMatC= 1.73D-12 BMatP= 1.42D-10
 IDIUse=1 WtCom= 1.00D+00 WtEn= 0.00D+00
 Coeff-Com: -0.520D-02 0.723D-01 0.112D+00 0.170D+00 0.651D+00
 Coeff:     -0.520D-02 0.723D-01 0.112D+00 0.170D+00 0.651D+00
 Gap=     0.232 Goal=   None    Shift=    0.000
 RMSDP=1.91D-08 MaxDP=1.87D-07 DE=-1.16D-10 OVMax= 2.80D-07

 Cycle  11  Pass 1  IDiag  1:
 E= -193.155649347665     Delta-E=       -0.000000000003 Rises=F Damp=F
 DIIS: error= 1.68D-08 at cycle   6 NSaved=   6.
 NSaved= 6 IEnMin= 6 EnMin= -193.155649347665     IErMin= 6 ErrMin= 1.68D-08
 ErrMax= 1.68D-08  0.00D+00 EMaxC= 1.00D-01 BMatC= 2.44D-14 BMatP= 1.73D-12
 IDIUse=1 WtCom= 1.00D+00 WtEn= 0.00D+00
 Coeff-Com: -0.835D-03 0.799D-02 0.125D-01 0.259D-01 0.140D+00 0.815D+00
 Coeff:     -0.835D-03 0.799D-02 0.125D-01 0.259D-01 0.140D+00 0.815D+00
 Gap=     0.232 Goal=   None    Shift=    0.000
 RMSDP=3.24D-09 MaxDP=3.74D-08 DE=-2.84D-12 OVMax= 5.52D-08

 SCF Done:  E(RB3LYP) =  -193.155649348     A.U. after   11 cycles
            NFock= 11  Conv=0.32D-08     -V/T= 2.0095
 KE= 1.913379498045D+02 PE=-6.878179364642D+02 EE= 1.844035120422D+02
 Leave Link  502 at Thu Mar 19 17:38:22 2026, MaxMem=   536870912 cpu:         3.0
 (Enter C:\G09W\l701.exe)
 Compute integral first derivatives.
 ... and contract with generalized density number  0.
 Leave Link  701 at Thu Mar 19 17:38:22 2026, MaxMem=   536870912 cpu:         0.0
 (Enter C:\G09W\l702.exe)
 L702 exits ... SP integral derivatives will be done elsewhere.
 Leave Link  702 at Thu Mar 19 17:38:23 2026, MaxMem=   536870912 cpu:         0.0
 (Enter C:\G09W\l703.exe)
 Compute integral first derivatives, UseDBF=F ICtDFT=           0.
 Integral derivatives from FoFJK, PRISM(SPDF).
 Calling FoFJK, ICntrl=      2127 FMM=F ISym2X=1 I1Cent= 0 IOpClX= 0 NMat=1 NMatS=1 NMatT=0.
 FoFJK:  IHMeth= 1 ICntrl=    2127 DoSepK=F KAlg= 0 I1Cent=   0 FoldK=F
 IRaf=         0 NMat=   1 IRICut=       1 DoRegI=T DoRafI=F ISym2E= 1.
 FoFCou: FMM=F IPFlag=           0 FMFlag=      100000 FMFlg1=         800
         NFxFlg=           0 DoJE=F BraDBF=F KetDBF=F FulRan=T
         wScrn=  0.000000 ICntrl=    2127 IOpCl=  0 I1Cent=           0 NGrid=           0
         NMat0=    1 NMatS0=      1 NMatT0=    0 NMatD0=    1 NMtDS0=    0 NMtDT0=    0
 Petite list used in FoFCou.
 Leave Link  703 at Thu Mar 19 17:38:24 2026, MaxMem=   536870912 cpu:         0.0
 (Enter C:\G09W\l716.exe)
 Dipole        = 2.22044605D-16 2.22044605D-15-1.11137996D+00
 ***** Axes restored to original set *****
 -------------------------------------------------------------------
 Center     Atomic                   Forces (Hartrees/Bohr)
 Number     Number              X              Y              Z
 -------------------------------------------------------------------
      1        6          -0.000993389    0.000951293   -0.000848693
      2        6           0.000355764    0.004648168   -0.004072507
      3        6           0.001133117    0.000874298   -0.000750805
      4        8          -0.000296506   -0.003873945    0.003394169
      5        1           0.000171928   -0.000535585    0.000802135
      6        1           0.000480115    0.000064627   -0.000049844
      7        1           0.000177305   -0.000862584    0.000429379
      8        1          -0.000283058   -0.000519106    0.000781193
      9        1          -0.000467595    0.000098942   -0.000093467
     10        1          -0.000277681   -0.000846109    0.000408440
 -------------------------------------------------------------------
 Cartesian Forces:  Max     0.004648168 RMS     0.001575552
 Leave Link  716 at Thu Mar 19 17:38:24 2026, MaxMem=   536870912 cpu:         0.0
 (Enter C:\G09W\l103.exe)

 GradGradGradGradGradGradGradGradGradGradGradGradGradGradGradGradGradGrad
 Berny optimization.
 Using GEDIIS/GDIIS optimizer.
 FormGI is forming the generalized inverse of G from B-inverse, IUseBI=4.
 Internal  Forces:  Max     0.005159045 RMS     0.000939592
 Search for a local minimum.
 Step number   2 out of a maximum of   46
 All quantities printed in internal units (Hartrees-Bohrs-Radians)
 RMS Force = .93959D-03 SwitMx=.10000D-02 MixMth= 2
 Mixed Optimization -- En-DIIS/RFO-DIIS
 Update second derivatives using D2CorX and points    1    2
 DE= -1.13D-03 DEPred=-9.92D-04 R= 1.14D+00
 TightC=F SS=  1.41D+00  RLast= 1.07D-01 DXNew= 5.0454D-01 3.1987D-01
 Trust test= 1.14D+00 RLast= 1.07D-01 DXMaxT set to 3.20D-01
 ITU=  1  0
 Use linear search instead of GDIIS.
     Eigenvalues ---    0.00703   0.00703   0.00703   0.06765   0.07334
     Eigenvalues ---    0.07334   0.07346   0.15485   0.16000   0.16000
     Eigenvalues ---    0.16000   0.16000   0.16420   0.25000   0.25019
     Eigenvalues ---    0.31882   0.32466   0.34261   0.34409   0.34485
     Eigenvalues ---    0.34496   0.34496   0.34496   0.84356
 RFO step:  Lambda=-3.62560944D-05 EMin= 7.02903874D-03
 Quartic linear search produced a step of  0.18171.
 Iteration  1 RMS(Cart)=  0.00420915 RMS(Int)=  0.00001956
 Iteration  2 RMS(Cart)=  0.00001518 RMS(Int)=  0.00001225
 Iteration  3 RMS(Cart)=  0.00000000 RMS(Int)=  0.00001225
 ITry= 1 IFail=0 DXMaxC= 8.67D-03 DCOld= 1.00D+10 DXMaxT= 3.20D-01 DXLimC= 3.00D+00 Rises=F
 ClnCor:  largest displacement from symmetrization is 2.43D-10 for atom     9.
 Variable       Old X    -DE/DX   Delta X   Delta X   Delta X     New X
                                 (Linear)    (Quad)   (Total)
    R1        2.87101   0.00038   0.00498  -0.00307   0.00191   2.87291
    R2        2.07257   0.00033   0.00137  -0.00010   0.00127   2.07384
    R3        2.06436  -0.00030  -0.00038  -0.00070  -0.00108   2.06328
    R4        2.07257   0.00033   0.00137  -0.00010   0.00127   2.07384
    R5        2.87101   0.00038   0.00498  -0.00307   0.00191   2.87291
    R6        2.30402  -0.00516  -0.00372  -0.00334  -0.00706   2.29696
    R7        2.07257   0.00033   0.00137  -0.00010   0.00127   2.07384
    R8        2.06436  -0.00030  -0.00038  -0.00070  -0.00108   2.06328
    R9        2.07257   0.00033   0.00137  -0.00010   0.00127   2.07384
    A1        1.92902   0.00018   0.00299  -0.00246   0.00051   1.92953
    A2        1.91668  -0.00036   0.00034  -0.00083  -0.00052   1.91616
    A3        1.92902   0.00018   0.00299  -0.00246   0.00051   1.92953
    A4        1.90692   0.00041   0.00124   0.00401   0.00522   1.91214
    A5        1.87464  -0.00081  -0.00888  -0.00212  -0.01100   1.86364
    A6        1.90692   0.00041   0.00124   0.00401   0.00522   1.91214
    A7        2.03787  -0.00068   0.00011  -0.00329  -0.00318   2.03468
    A8        2.12266   0.00034  -0.00005   0.00165   0.00159   2.12425
    A9        2.12266   0.00034  -0.00005   0.00165   0.00159   2.12425
   A10        1.92902   0.00018   0.00299  -0.00246   0.00051   1.92953
   A11        1.91668  -0.00036   0.00034  -0.00083  -0.00052   1.91616
   A12        1.92902   0.00018   0.00299  -0.00246   0.00051   1.92953
   A13        1.90692   0.00041   0.00124   0.00401   0.00522   1.91214
   A14        1.87464  -0.00081  -0.00888  -0.00212  -0.01100   1.86364
   A15        1.90692   0.00041   0.00124   0.00401   0.00522   1.91214
    D1       -1.03646   0.00039   0.00361   0.00287   0.00649  -1.02996
    D2        2.10514   0.00039   0.00361   0.00287   0.00649   2.11163
    D3        3.14159   0.00000   0.00000   0.00000   0.00000   3.14159
    D4        0.00000   0.00000   0.00000   0.00000   0.00000   0.00000
    D5        1.03646  -0.00039  -0.00361  -0.00287  -0.00649   1.02996
    D6       -2.10514  -0.00039  -0.00361  -0.00287  -0.00649  -2.11163
    D7        1.03646  -0.00039  -0.00361  -0.00287  -0.00649   1.02996
    D8        3.14159   0.00000   0.00000   0.00000   0.00000   3.14159
    D9       -1.03646   0.00039   0.00361   0.00287   0.00649  -1.02996
   D10       -2.10514  -0.00039  -0.00361  -0.00287  -0.00649  -2.11163
   D11        0.00000   0.00000   0.00000   0.00000   0.00000   0.00000
   D12        2.10514   0.00039   0.00361   0.00287   0.00649   2.11163
         Item               Value     Threshold  Converged?
 Maximum Force            0.005159     0.000450     NO 
 RMS     Force            0.000940     0.000300     NO 
 Maximum Displacement     0.008665     0.001800     NO 
 RMS     Displacement     0.004214     0.001200     NO 
 Predicted change in Energy=-4.510242D-05
 Lowest energy point so far.  Saving SCF results.
 GradGradGradGradGradGradGradGradGradGradGradGradGradGradGradGradGradGrad

 Leave Link  103 at Thu Mar 19 17:38:25 2026, MaxMem=   536870912 cpu:         0.0
 (Enter C:\G09W\l202.exe)
                          Input orientation:                          
 ---------------------------------------------------------------------
 Center     Atomic      Atomic             Coordinates (Angstroms)
 Number     Number       Type             X           Y           Z
 ---------------------------------------------------------------------
      1          6           0       -1.300092   -0.070653    0.043324
      2          6           0        0.036945    0.482701   -0.422920
      3          6           0        1.282128   -0.164045    0.162307
      4          8           0        0.106804    1.395421   -1.222603
      5          1           0       -1.377705   -1.139785   -0.191798
      6          1           0       -2.114028    0.470594   -0.443165
      7          1           0       -1.396709    0.022007    1.132557
      8          1           0        1.303733   -1.236766   -0.068243
      9          1           0        2.174195    0.315500   -0.245574
     10          1           0        1.284729   -0.074973    1.256112
 ---------------------------------------------------------------------
                    Distance matrix (angstroms):
                    1          2          3          4          5
     1  C    0.000000
     2  C    1.520280   0.000000
     3  C    2.586646   1.520280   0.000000
     4  O    2.394013   1.215496   2.394013   0.000000
     5  H    1.097429   2.164974   2.855201   3.113454   0.000000
     6  H    1.091840   2.151103   3.507598   2.528819   1.788485
     7  H    1.097429   2.164974   2.855200   3.113454   1.761828
     8  H    2.855200   2.164974   1.097429   3.113454   2.686034
     9  H    3.507598   2.151103   1.091840   2.528819   3.838846
    10  H    2.855201   2.164974   1.097429   3.113454   3.212292
                    6          7          8          9         10
     6  H    0.000000
     7  H    1.788485   0.000000
     8  H    3.838846   3.212291   0.000000
     9  H    4.295574   3.838846   1.788485   0.000000
    10  H    3.838846   2.686034   1.761828   1.788485   0.000000
 Stoichiometry    C3H6O
 Framework group  C2[C2(CO),X(C2H6)]
 Deg. of freedom    12
 Full point group                 C2      NOp   2
 RotChk:  IX=3 Diff= 8.99D-08
 Largest Abelian subgroup         C2      NOp   2
 Largest concise Abelian subgroup C2      NOp   2
                         Standard orientation:                         
 ---------------------------------------------------------------------
 Center     Atomic      Atomic             Coordinates (Angstroms)
 Number     Number       Type             X           Y           Z
 ---------------------------------------------------------------------
      1          6           0        0.000000   -1.293323   -0.614390
      2          6           0        0.000000    0.000000    0.184713
      3          6           0        0.000000    1.293323   -0.614390
      4          8           0        0.000000    0.000000    1.400210
      5          1           0       -0.880914   -1.343017   -1.266978
      6          1           0        0.000000   -2.147787    0.065319
      7          1           0        0.880914   -1.343017   -1.266978
      8          1           0       -0.880914    1.343017   -1.266978
      9          1           0        0.000000    2.147787    0.065319
     10          1           0        0.880914    1.343017   -1.266978
 ---------------------------------------------------------------------
 Rotational constants (GHZ):     10.1027032      8.4451987      4.8777213
 Leave Link  202 at Thu Mar 19 17:38:26 2026, MaxMem=   536870912 cpu:         0.0
 (Enter C:\G09W\l301.exe)
 Standard basis: 6-31G(d) (6D, 7F)
 Ernie: Thresh=  0.10000D-02 Tol=  0.10000D-05 Strict=F.
 There are    39 symmetry adapted cartesian basis functions of A   symmetry.
 There are    33 symmetry adapted cartesian basis functions of B   symmetry.
 There are    39 symmetry adapted basis functions of A   symmetry.
 There are    33 symmetry adapted basis functions of B   symmetry.
    72 basis functions,   136 primitive gaussians,    72 cartesian basis functions
    16 alpha electrons       16 beta electrons
       nuclear repulsion energy       118.9786357886 Hartrees.
 IExCor=  402 DFT=T Ex+Corr=B3LYP ExCW=0 ScaHFX=  0.200000
 ScaDFX=  0.800000  0.720000  1.000000  0.810000 ScalE2=  1.000000  1.000000
 IRadAn=      0 IRanWt=     -1 IRanGd=            0 ICorTp=0 IEmpDi=  4
 NAtoms=   10 NActive=   10 NUniq=    6 SFac= 2.78D+00 NAtFMM=   60 NAOKFM=F Big=F
 Integral buffers will be    131072 words long.
 Raffenetti 2 integral format.
 Two-electron integral symmetry is turned on.
 Leave Link  301 at Thu Mar 19 17:38:26 2026, MaxMem=   536870912 cpu:         0.0
 (Enter C:\G09W\l302.exe)
 NPDir=0 NMtPBC=     1 NCelOv=     1 NCel=       1 NClECP=     1 NCelD=      1
         NCelK=      1 NCelE2=     1 NClLst=     1 CellRange=     0.0.
 One-electron integrals computed using PRISM.
 One-electron integral symmetry used in STVInt
 NBasis=    72 RedAO= T EigKep=  4.83D-03  NBF=    39    33
 NBsUse=    72 1.00D-06 EigRej= -1.00D+00 NBFU=    39    33
 Precomputing XC quadrature grid using
 IXCGrd= 4 IRadAn=           0 IRanWt=          -1 IRanGd=           0 AccXCQ= 0.00D+00.
 Generated NRdTot=       0 NPtTot=           0 NUsed=           0 NTot=          32
 NSgBfM=    72    72    72    72    72 MxSgAt=    10 MxSgA2=    10.
 Leave Link  302 at Thu Mar 19 17:38:26 2026, MaxMem=   536870912 cpu:         0.0
 (Enter C:\G09W\l303.exe)
 DipDrv:  MaxL=1.
 Leave Link  303 at Thu Mar 19 17:38:27 2026, MaxMem=   536870912 cpu:         0.0
 (Enter C:\G09W\l401.exe)
 Initial guess from the checkpoint file:  "acetone_rdkit.chk"
 B after Tr=     0.000000    0.000000    0.000000
         Rot=    1.000000    0.000000    0.000000    0.000000 Ang=   0.00 deg.
 Guess basis will be translated and rotated to current coordinates.
 JPrj=2 DoOrth=T DoCkMO=T.
 Initial guess orbital symmetries:
       Occupied  (A) (A) (B) (A) (A) (A) (B) (A) (B) (B) (A) (A)
                 (A) (B) (B) (B)
       Virtual   (A) (A) (A) (A) (A) (A) (A) (A) (A) (A) (A) (A)
                 (A) (A) (A) (A) (A) (A) (A) (A) (A) (A) (A) (A)
                 (A) (A) (A) (A) (A) (A) (B) (B) (B) (B) (B) (B)
                 (B) (B) (B) (B) (B) (B) (B) (B) (B) (B) (B) (B)
                 (B) (B) (B) (B) (B) (B) (B) (B)
 The electronic state of the initial guess is 1-A.
 Leave Link  401 at Thu Mar 19 17:38:28 2026, MaxMem=   536870912 cpu:         0.0
 (Enter C:\G09W\l502.exe)
 Closed shell SCF:
 Using DIIS extrapolation, IDIIS=  1040.
 Integral symmetry usage will be decided dynamically.
 Keep R1 ints in memory in symmetry-blocked form, NReq=5224347.
 IVT=       35190 IEndB=       35190 NGot=   536870912 MDV=   535101144
 LenX=   535101144 LenY=   535095519
 Requested convergence on RMS density matrix=1.00D-08 within 128 cycles.
 Requested convergence on MAX density matrix=1.00D-06.
 Requested convergence on             energy=1.00D-06.
 No special actions if energy rises.
 FoFCou: FMM=F IPFlag=           0 FMFlag=           0 FMFlg1=           0
         NFxFlg=           0 DoJE=F BraDBF=F KetDBF=F FulRan=T
         wScrn=  0.000000 ICntrl=     600 IOpCl=  0 I1Cent=           0 NGrid=           0
         NMat0=    1 NMatS0=   2628 NMatT0=    0 NMatD0=    1 NMtDS0=    0 NMtDT0=    0
 Petite list used in FoFCou.

 Cycle   1  Pass 1  IDiag  1:
 E= -193.155673012950    
 DIIS: error= 3.12D-04 at cycle   1 NSaved=   1.
 NSaved= 1 IEnMin= 1 EnMin= -193.155673012950     IErMin= 1 ErrMin= 3.12D-04
 ErrMax= 3.12D-04  0.00D+00 EMaxC= 1.00D-01 BMatC= 1.43D-05 BMatP= 1.43D-05
 IDIUse=3 WtCom= 9.97D-01 WtEn= 3.12D-03
 Coeff-Com:  0.100D+01
 Coeff-En:   0.100D+01
 Coeff:      0.100D+01
 Gap=     1.271 Goal=   None    Shift=    0.000
 RMSDP=8.58D-05 MaxDP=1.18D-03              OVMax= 1.46D-03

 Cycle   2  Pass 1  IDiag  1:
 E= -193.155690319727     Delta-E=       -0.000017306776 Rises=F Damp=F
 DIIS: error= 2.85D-04 at cycle   2 NSaved=   2.
 NSaved= 2 IEnMin= 2 EnMin= -193.155690319727     IErMin= 2 ErrMin= 2.85D-04
 ErrMax= 2.85D-04  0.00D+00 EMaxC= 1.00D-01 BMatC= 5.00D-06 BMatP= 1.43D-05
 IDIUse=3 WtCom= 9.97D-01 WtEn= 2.85D-03
 Coeff-Com:  0.311D+00 0.689D+00
 Coeff-En:   0.000D+00 0.100D+01
 Coeff:      0.310D+00 0.690D+00
 Gap=     0.233 Goal=   None    Shift=    0.000
 RMSDP=5.09D-05 MaxDP=1.07D-03 DE=-1.73D-05 OVMax= 1.55D-03

 Cycle   3  Pass 1  IDiag  1:
 E= -193.155689522422     Delta-E=        0.000000797305 Rises=F Damp=F
 DIIS: error= 2.74D-04 at cycle   3 NSaved=   3.
 NSaved= 3 IEnMin= 2 EnMin= -193.155690319727     IErMin= 3 ErrMin= 2.74D-04
 ErrMax= 2.74D-04  0.00D+00 EMaxC= 1.00D-01 BMatC= 5.73D-06 BMatP= 5.00D-06
 IDIUse=3 WtCom= 3.77D-01 WtEn= 6.23D-01
 Coeff-Com:  0.157D-01 0.514D+00 0.471D+00
 Coeff-En:   0.000D+00 0.539D+00 0.461D+00
 Coeff:      0.591D-02 0.529D+00 0.465D+00
 Gap=     0.233 Goal=   None    Shift=    0.000
 RMSDP=2.98D-05 MaxDP=6.24D-04 DE= 7.97D-07 OVMax= 1.02D-03

 Cycle   4  Pass 1  IDiag  1:
 E= -193.155693862071     Delta-E=       -0.000004339649 Rises=F Damp=F
 DIIS: error= 4.51D-05 at cycle   4 NSaved=   4.
 NSaved= 4 IEnMin= 4 EnMin= -193.155693862071     IErMin= 4 ErrMin= 4.51D-05
 ErrMax= 4.51D-05  0.00D+00 EMaxC= 1.00D-01 BMatC= 1.03D-07 BMatP= 5.00D-06
 IDIUse=1 WtCom= 1.00D+00 WtEn= 0.00D+00
 Coeff-Com: -0.133D-01 0.196D+00 0.219D+00 0.599D+00
 Coeff:     -0.133D-01 0.196D+00 0.219D+00 0.599D+00
 Gap=     0.233 Goal=   None    Shift=    0.000
 RMSDP=4.00D-06 MaxDP=7.63D-05 DE=-4.34D-06 OVMax= 8.30D-05

 Cycle   5  Pass 1  IDiag  1:
 E= -193.155693951020     Delta-E=       -0.000000088949 Rises=F Damp=F
 DIIS: error= 9.49D-06 at cycle   5 NSaved=   5.
 NSaved= 5 IEnMin= 5 EnMin= -193.155693951020     IErMin= 5 ErrMin= 9.49D-06
 ErrMax= 9.49D-06  0.00D+00 EMaxC= 1.00D-01 BMatC= 4.96D-09 BMatP= 1.03D-07
 IDIUse=1 WtCom= 1.00D+00 WtEn= 0.00D+00
 Coeff-Com: -0.571D-02 0.477D-01 0.679D-01 0.244D+00 0.646D+00
 Coeff:     -0.571D-02 0.477D-01 0.679D-01 0.244D+00 0.646D+00
 Gap=     0.233 Goal=   None    Shift=    0.000
 RMSDP=1.64D-06 MaxDP=1.98D-05 DE=-8.89D-08 OVMax= 2.21D-05

 Cycle   6  Pass 1  IDiag  1:
 E= -193.155693956155     Delta-E=       -0.000000005135 Rises=F Damp=F
 DIIS: error= 8.24D-07 at cycle   6 NSaved=   6.
 NSaved= 6 IEnMin= 6 EnMin= -193.155693956155     IErMin= 6 ErrMin= 8.24D-07
 ErrMax= 8.24D-07  0.00D+00 EMaxC= 1.00D-01 BMatC= 8.72D-11 BMatP= 4.96D-09
 IDIUse=1 WtCom= 1.00D+00 WtEn= 0.00D+00
 Coeff-Com: -0.653D-03 0.190D-02 0.597D-02 0.277D-01 0.161D+00 0.804D+00
 Coeff:     -0.653D-03 0.190D-02 0.597D-02 0.277D-01 0.161D+00 0.804D+00
 Gap=     0.233 Goal=   None    Shift=    0.000
 RMSDP=1.75D-07 MaxDP=1.87D-06 DE=-5.13D-09 OVMax= 3.50D-06

 Cycle   7  Pass 1  IDiag  1:
 E= -193.155693956239     Delta-E=       -0.000000000083 Rises=F Damp=F
 DIIS: error= 3.66D-07 at cycle   7 NSaved=   7.
 NSaved= 7 IEnMin= 7 EnMin= -193.155693956239     IErMin= 7 ErrMin= 3.66D-07
 ErrMax= 3.66D-07  0.00D+00 EMaxC= 1.00D-01 BMatC= 8.35D-12 BMatP= 8.72D-11
 IDIUse=1 WtCom= 1.00D+00 WtEn= 0.00D+00
 Coeff-Com: -0.802D-04-0.808D-03 0.100D-03 0.179D-02 0.405D-01 0.310D+00
 Coeff-Com:  0.648D+00
 Coeff:     -0.802D-04-0.808D-03 0.100D-03 0.179D-02 0.405D-01 0.310D+00
 Coeff:      0.648D+00
 Gap=     0.233 Goal=   None    Shift=    0.000
 RMSDP=4.93D-08 MaxDP=5.76D-07 DE=-8.34D-11 OVMax= 7.95D-07

 Cycle   8  Pass 1  IDiag  1:
 E= -193.155693956248     Delta-E=       -0.000000000009 Rises=F Damp=F
 DIIS: error= 9.52D-08 at cycle   8 NSaved=   8.
 NSaved= 8 IEnMin= 8 EnMin= -193.155693956248     IErMin= 8 ErrMin= 9.52D-08
 ErrMax= 9.52D-08  0.00D+00 EMaxC= 1.00D-01 BMatC= 5.04D-13 BMatP= 8.35D-12
 IDIUse=1 WtCom= 1.00D+00 WtEn= 0.00D+00
 Coeff-Com:  0.251D-04-0.563D-03-0.516D-03-0.173D-02 0.413D-02 0.619D-01
 Coeff-Com:  0.243D+00 0.693D+00
 Coeff:      0.251D-04-0.563D-03-0.516D-03-0.173D-02 0.413D-02 0.619D-01
 Coeff:      0.243D+00 0.693D+00
 Gap=     0.233 Goal=   None    Shift=    0.000
 RMSDP=1.45D-08 MaxDP=1.70D-07 DE=-9.49D-12 OVMax= 2.21D-07

 Cycle   9  Pass 1  IDiag  1:
 E= -193.155693956247     Delta-E=        0.000000000001 Rises=F Damp=F
 DIIS: error= 1.25D-08 at cycle   9 NSaved=   9.
 NSaved= 9 IEnMin= 8 EnMin= -193.155693956248     IErMin= 9 ErrMin= 1.25D-08
 ErrMax= 1.25D-08  0.00D+00 EMaxC= 1.00D-01 BMatC= 8.58D-15 BMatP= 5.04D-13
 IDIUse=1 WtCom= 1.00D+00 WtEn= 0.00D+00
 Coeff-Com:  0.731D-05-0.571D-04-0.795D-04-0.416D-03-0.951D-03-0.236D-02
 Coeff-Com:  0.190D-01 0.146D+00 0.839D+00
 Coeff:      0.731D-05-0.571D-04-0.795D-04-0.416D-03-0.951D-03-0.236D-02
 Coeff:      0.190D-01 0.146D+00 0.839D+00
 Gap=     0.233 Goal=   None    Shift=    0.000
 RMSDP=1.51D-09 MaxDP=1.59D-08 DE= 5.68D-13 OVMax= 2.39D-08

 SCF Done:  E(RB3LYP) =  -193.155693956     A.U. after    9 cycles
            NFock=  9  Conv=0.15D-08     -V/T= 2.0095
 KE= 1.913465854201D+02 PE=-6.879354979296D+02 EE= 1.844545827647D+02
 Leave Link  502 at Thu Mar 19 17:38:32 2026, MaxMem=   536870912 cpu:         4.0
 (Enter C:\G09W\l701.exe)
 Compute integral first derivatives.
 ... and contract with generalized density number  0.
 Leave Link  701 at Thu Mar 19 17:38:32 2026, MaxMem=   536870912 cpu:         0.0
 (Enter C:\G09W\l702.exe)
 L702 exits ... SP integral derivatives will be done elsewhere.
 Leave Link  702 at Thu Mar 19 17:38:32 2026, MaxMem=   536870912 cpu:         0.0
 (Enter C:\G09W\l703.exe)
 Compute integral first derivatives, UseDBF=F ICtDFT=           0.
 Integral derivatives from FoFJK, PRISM(SPDF).
 Calling FoFJK, ICntrl=      2127 FMM=F ISym2X=1 I1Cent= 0 IOpClX= 0 NMat=1 NMatS=1 NMatT=0.
 FoFJK:  IHMeth= 1 ICntrl=    2127 DoSepK=F KAlg= 0 I1Cent=   0 FoldK=F
 IRaf=         0 NMat=   1 IRICut=       1 DoRegI=T DoRafI=F ISym2E= 1.
 FoFCou: FMM=F IPFlag=           0 FMFlag=      100000 FMFlg1=         800
         NFxFlg=           0 DoJE=F BraDBF=F KetDBF=F FulRan=T
         wScrn=  0.000000 ICntrl=    2127 IOpCl=  0 I1Cent=           0 NGrid=           0
         NMat0=    1 NMatS0=      1 NMatT0=    0 NMatD0=    1 NMtDS0=    0 NMtDT0=    0
 Petite list used in FoFCou.
 Leave Link  703 at Thu Mar 19 17:38:33 2026, MaxMem=   536870912 cpu:         1.0
 (Enter C:\G09W\l716.exe)
 Dipole        = 6.66133815D-16-4.44089210D-16-1.10723771D+00
 ***** Axes restored to original set *****
 -------------------------------------------------------------------
 Center     Atomic                   Forces (Hartrees/Bohr)
 Number     Number              X              Y              Z
 -------------------------------------------------------------------
      1        6          -0.000241977   -0.000073173    0.000060732
      2        6          -0.000010771   -0.000140727    0.000123299
      3        6           0.000229470   -0.000090237    0.000082441
      4        8           0.000022933    0.000299627   -0.000262519
      5        1           0.000054748    0.000024446   -0.000017368
      6        1           0.000008837   -0.000047652    0.000041928
      7        1           0.000054802    0.000021181   -0.000021095
      8        1          -0.000051016    0.000028278   -0.000022239
      9        1          -0.000016063   -0.000046750    0.000040783
     10        1          -0.000050963    0.000025008   -0.000025961
 -------------------------------------------------------------------
 Cartesian Forces:  Max     0.000299627 RMS     0.000108526
 Leave Link  716 at Thu Mar 19 17:38:33 2026, MaxMem=   536870912 cpu:         0.0
 (Enter C:\G09W\l103.exe)

 GradGradGradGradGradGradGradGradGradGradGradGradGradGradGradGradGradGrad
 Berny optimization.
 Using GEDIIS/GDIIS optimizer.
 FormGI is forming the generalized inverse of G from B-inverse, IUseBI=4.
 Internal  Forces:  Max     0.000399022 RMS     0.000095601
 Search for a local minimum.
 Step number   3 out of a maximum of   46
 All quantities printed in internal units (Hartrees-Bohrs-Radians)
 RMS Force = .95601D-04 SwitMx=.10000D-02 MixMth= 2
 Mixed Optimization -- En-DIIS/RFO-DIIS
 Swapping is turned off.
 Update second derivatives using D2CorX and points    1    2    3
 DE= -4.46D-05 DEPred=-4.51D-05 R= 9.89D-01
 TightC=F SS=  1.41D+00  RLast= 2.78D-02 DXNew= 5.3796D-01 8.3290D-02
 Trust test= 9.89D-01 RLast= 2.78D-02 DXMaxT set to 3.20D-01
 ITU=  1  1  0
     Eigenvalues ---    0.00703   0.00703   0.00703   0.06460   0.07311
     Eigenvalues ---    0.07311   0.07365   0.16000   0.16000   0.16000
     Eigenvalues ---    0.16000   0.16015   0.16555   0.24624   0.25000
     Eigenvalues ---    0.31882   0.32025   0.34295   0.34409   0.34496
     Eigenvalues ---    0.34496   0.34496   0.34545   0.88497
 En-DIIS/RFO-DIIS IScMMF=        0 using points:     3    2
 RFO step:  Lambda=-5.19233179D-07.
 NNeg= 0 NP= 2 Switch=  2.50D-03 Rises=F DC=  4.46D-05 SmlDif=  1.00D-05
 RMS Error=  0.1621499086D-03 NUsed= 2 EDIIS=F
 DidBck=F Rises=F RFO-DIIS coefs:    0.98277    0.01723
 Iteration  1 RMS(Cart)=  0.00088745 RMS(Int)=  0.00000046
 Iteration  2 RMS(Cart)=  0.00000049 RMS(Int)=  0.00000009
 ITry= 1 IFail=0 DXMaxC= 1.96D-03 DCOld= 1.00D+10 DXMaxT= 3.20D-01 DXLimC= 3.00D+00 Rises=F
 ClnCor:  largest displacement from symmetrization is 2.13D-10 for atom     9.
 Variable       Old X    -DE/DX   Delta X   Delta X   Delta X     New X
                                 (Linear)    (Quad)   (Total)
    R1        2.87291   0.00016  -0.00003   0.00053   0.00050   2.87341
    R2        2.07384  -0.00002  -0.00002  -0.00004  -0.00006   2.07378
    R3        2.06328  -0.00005   0.00002  -0.00016  -0.00015   2.06313
    R4        2.07384  -0.00002  -0.00002  -0.00004  -0.00006   2.07378
    R5        2.87291   0.00016  -0.00003   0.00053   0.00050   2.87341
    R6        2.29696   0.00040   0.00012   0.00027   0.00039   2.29734
    R7        2.07384  -0.00002  -0.00002  -0.00004  -0.00006   2.07378
    R8        2.06328  -0.00005   0.00002  -0.00016  -0.00015   2.06313
    R9        2.07384  -0.00002  -0.00002  -0.00004  -0.00006   2.07378
    A1        1.92953  -0.00009  -0.00001  -0.00056  -0.00057   1.92896
    A2        1.91616   0.00010   0.00001   0.00067   0.00068   1.91684
    A3        1.92953  -0.00009  -0.00001  -0.00056  -0.00057   1.92896
    A4        1.91214   0.00001  -0.00009   0.00027   0.00018   1.91232
    A5        1.86364   0.00006   0.00019  -0.00010   0.00009   1.86373
[...]
 -------------------------------------------------------------------
      1        6          -0.000039506   -0.000037895    0.000032687
      2        6           0.000004158    0.000054320   -0.000047593
      3        6           0.000033502   -0.000040545    0.000036039
      4        8          -0.000000736   -0.000009610    0.000008420
      5        1           0.000016462    0.000007927   -0.000014285
      6        1           0.000000459   -0.000007651    0.000006718
      7        1           0.000016340    0.000015428   -0.000005741
      8        1          -0.000014466    0.000009053   -0.000015708
      9        1          -0.000001625   -0.000007575    0.000006623
     10        1          -0.000014589    0.000016548   -0.000007159
 -------------------------------------------------------------------
 Cartesian Forces:  Max     0.000054320 RMS     0.000023012
 Leave Link  716 at Thu Mar 19 17:38:40 2026, MaxMem=   536870912 cpu:         0.0
 (Enter C:\G09W\l103.exe)

 GradGradGradGradGradGradGradGradGradGradGradGradGradGradGradGradGradGrad
 Berny optimization.
 Using GEDIIS/GDIIS optimizer.
 FormGI is forming the generalized inverse of G from B-inverse, IUseBI=4.
 Internal  Forces:  Max     0.000077429 RMS     0.000020791
 Search for a local minimum.
 Step number   4 out of a maximum of   46
 All quantities printed in internal units (Hartrees-Bohrs-Radians)
 RMS Force = .20791D-04 SwitMx=.10000D-02 MixMth= 2
 Mixed Optimization -- En-DIIS/RFO-DIIS
 Swapping is turned off.
 Update second derivatives using D2CorX and points    1    2    3    4
 DE= -5.78D-07 DEPred=-4.73D-07 R= 1.22D+00
 Trust test= 1.22D+00 RLast= 2.17D-03 DXMaxT set to 3.20D-01
 ITU=  0  1  1  0
     Eigenvalues ---    0.00703   0.00703   0.00703   0.06462   0.07308
     Eigenvalues ---    0.07308   0.07371   0.13487   0.16000   0.16000
     Eigenvalues ---    0.16000   0.16000   0.16272   0.21559   0.25000
     Eigenvalues ---    0.31882   0.32496   0.34280   0.34409   0.34467
     Eigenvalues ---    0.34496   0.34496   0.34496   0.93860
 En-DIIS/RFO-DIIS IScMMF=        0 using points:     4    3    2
 RFO step:  Lambda=-3.93473032D-08.
 NNeg= 0 NP= 3 Switch=  2.50D-03 Rises=F DC=  4.46D-05 SmlDif=  1.00D-05
 RMS Error=  0.5312602883D-04 NUsed= 3 EDIIS=F
 DidBck=F Rises=F RFO-DIIS coefs:    1.29525   -0.29020   -0.00505
 Iteration  1 RMS(Cart)=  0.00040548 RMS(Int)=  0.00000010
 Iteration  2 RMS(Cart)=  0.00000009 RMS(Int)=  0.00000006
 ITry= 1 IFail=0 DXMaxC= 9.97D-04 DCOld= 1.00D+10 DXMaxT= 3.20D-01 DXLimC= 3.00D+00 Rises=F
 ClnCor:  largest displacement from symmetrization is 9.67D-12 for atom     9.
 Variable       Old X    -DE/DX   Delta X   Delta X   Delta X     New X
                                 (Linear)    (Quad)   (Total)
    R1        2.87341   0.00002   0.00016  -0.00004   0.00012   2.87353
    R2        2.07378  -0.00001  -0.00001  -0.00001  -0.00002   2.07376
    R3        2.06313  -0.00001  -0.00005   0.00001  -0.00004   2.06310
    R4        2.07378  -0.00001  -0.00001  -0.00001  -0.00002   2.07376
    R5        2.87341   0.00002   0.00016  -0.00004   0.00012   2.87353
    R6        2.29734  -0.00001   0.00008  -0.00010  -0.00002   2.29732
    R7        2.07378  -0.00001  -0.00001  -0.00001  -0.00002   2.07376
    R8        2.06313  -0.00001  -0.00005   0.00001  -0.00004   2.06310
    R9        2.07378  -0.00001  -0.00001  -0.00001  -0.00002   2.07376
    A1        1.92896  -0.00003  -0.00017  -0.00008  -0.00024   1.92872
    A2        1.91684   0.00002   0.00020   0.00000   0.00020   1.91704
    A3        1.92896  -0.00003  -0.00017  -0.00008  -0.00024   1.92872
    A4        1.91232   0.00000   0.00008  -0.00002   0.00006   1.91238
    A5        1.86373   0.00003  -0.00003   0.00019   0.00016   1.86389
    A6        1.91232   0.00000   0.00008  -0.00002   0.00006   1.91238
    A7        2.03391  -0.00008  -0.00025  -0.00019  -0.00044   2.03347
    A8        2.12464   0.00004   0.00012   0.00010   0.00022   2.12486
    A9        2.12464   0.00004   0.00012   0.00010   0.00022   2.12486
   A10        1.92896  -0.00003  -0.00017  -0.00008  -0.00024   1.92872
   A11        1.91684   0.00002   0.00020   0.00000   0.00020   1.91704
   A12        1.92896  -0.00003  -0.00017  -0.00008  -0.00024   1.92872
   A13        1.91232   0.00000   0.00008  -0.00002   0.00006   1.91238
   A14        1.86373   0.00003  -0.00003   0.00019   0.00016   1.86389
   A15        1.91232   0.00000   0.00008  -0.00002   0.00006   1.91238
    D1       -1.02966   0.00000   0.00012  -0.00007   0.00005  -1.02961
    D2        2.11193   0.00000   0.00012  -0.00007   0.00005   2.11198
    D3        3.14159   0.00000   0.00000   0.00000   0.00000   3.14159
    D4        0.00000   0.00000   0.00000   0.00000   0.00000   0.00000
    D5        1.02966   0.00000  -0.00012   0.00007  -0.00005   1.02961
    D6       -2.11193   0.00000  -0.00012   0.00007  -0.00005  -2.11198
    D7        1.02966   0.00000  -0.00012   0.00007  -0.00005   1.02961
    D8        3.14159   0.00000   0.00000   0.00000   0.00000   3.14159
    D9       -1.02966   0.00000   0.00012  -0.00007   0.00005  -1.02961
   D10       -2.11193   0.00000  -0.00012   0.00007  -0.00005  -2.11198
   D11        0.00000   0.00000   0.00000   0.00000   0.00000   0.00000
   D12        2.11193   0.00000   0.00012  -0.00007   0.00005   2.11198
         Item               Value     Threshold  Converged?
 Maximum Force            0.000077     0.000450     YES
 RMS     Force            0.000021     0.000300     YES
 Maximum Displacement     0.000997     0.001800     YES
 RMS     Displacement     0.000406     0.001200     YES
 Predicted change in Energy=-5.080390D-08
 Optimization completed.
    -- Stationary point found.
                           ----------------------------
                           !   Optimized Parameters   !
                           ! (Angstroms and Degrees)  !
 --------------------------                            --------------------------
 ! Name  Definition              Value          Derivative Info.                !
 --------------------------------------------------------------------------------
 ! R1    R(1,2)                  1.5205         -DE/DX =    0.0                 !
 ! R2    R(1,5)                  1.0974         -DE/DX =    0.0                 !
 ! R3    R(1,6)                  1.0918         -DE/DX =    0.0                 !
 ! R4    R(1,7)                  1.0974         -DE/DX =    0.0                 !
 ! R5    R(2,3)                  1.5205         -DE/DX =    0.0                 !
 ! R6    R(2,4)                  1.2157         -DE/DX =    0.0                 !
 ! R7    R(3,8)                  1.0974         -DE/DX =    0.0                 !
 ! R8    R(3,9)                  1.0918         -DE/DX =    0.0                 !
 ! R9    R(3,10)                 1.0974         -DE/DX =    0.0                 !
 ! A1    A(2,1,5)              110.5214         -DE/DX =    0.0                 !
 ! A2    A(2,1,6)              109.8268         -DE/DX =    0.0                 !
 ! A3    A(2,1,7)              110.5214         -DE/DX =    0.0                 !
 ! A4    A(5,1,6)              109.5678         -DE/DX =    0.0                 !
 ! A5    A(5,1,7)              106.7838         -DE/DX =    0.0                 !
 ! A6    A(6,1,7)              109.5678         -DE/DX =    0.0                 !
 ! A7    A(1,2,3)              116.5342         -DE/DX =   -0.0001              !
 ! A8    A(1,2,4)              121.7329         -DE/DX =    0.0                 !
 ! A9    A(3,2,4)              121.7329         -DE/DX =    0.0                 !
 ! A10   A(2,3,8)              110.5214         -DE/DX =    0.0                 !
 ! A11   A(2,3,9)              109.8268         -DE/DX =    0.0                 !
 ! A12   A(2,3,10)             110.5214         -DE/DX =    0.0                 !
 ! A13   A(8,3,9)              109.5678         -DE/DX =    0.0                 !
 ! A14   A(8,3,10)             106.7838         -DE/DX =    0.0                 !
 ! A15   A(9,3,10)             109.5678         -DE/DX =    0.0                 !
 ! D1    D(5,1,2,3)            -58.9953         -DE/DX =    0.0                 !
 ! D2    D(5,1,2,4)            121.0047         -DE/DX =    0.0                 !
 ! D3    D(6,1,2,3)            180.0            -DE/DX =    0.0                 !
 ! D4    D(6,1,2,4)              0.0            -DE/DX =    0.0                 !
 ! D5    D(7,1,2,3)             58.9953         -DE/DX =    0.0                 !
 ! D6    D(7,1,2,4)           -121.0047         -DE/DX =    0.0                 !
 ! D7    D(1,2,3,8)             58.9953         -DE/DX =    0.0                 !
 ! D8    D(1,2,3,9)            180.0            -DE/DX =    0.0                 !
 ! D9    D(1,2,3,10)           -58.9953         -DE/DX =    0.0                 !
 ! D10   D(4,2,3,8)           -121.0047         -DE/DX =    0.0                 !
 ! D11   D(4,2,3,9)              0.0            -DE/DX =    0.0                 !
 ! D12   D(4,2,3,10)           121.0047         -DE/DX =    0.0                 !
 --------------------------------------------------------------------------------
 Lowest energy point so far.  Saving SCF results.
 GradGradGradGradGradGradGradGradGradGradGradGradGradGradGradGradGradGrad

 Largest change from initial coordinates is atom   10       0.034 Angstoms.
 Leave Link  103 at Thu Mar 19 17:38:41 2026, MaxMem=   536870912 cpu:         0.0
 (Enter C:\G09W\l202.exe)
                          Input orientation:                          
 ---------------------------------------------------------------------
 Center     Atomic      Atomic             Coordinates (Angstroms)
 Number     Number       Type             X           Y           Z
 ---------------------------------------------------------------------
      1          6           0       -1.300002   -0.070619    0.043296
      2          6           0        0.036985    0.483219   -0.423374
      3          6           0        1.282045   -0.164005    0.162270
      4          8           0        0.106855    1.396094   -1.223192
      5          1           0       -1.376668   -1.139798   -0.191775
      6          1           0       -2.114659    0.469930   -0.442591
      7          1           0       -1.395672    0.021997    1.132584
      8          1           0        1.302700   -1.236704   -0.068316
      9          1           0        2.174721    0.314793   -0.244947
     10          1           0        1.283696   -0.074908    1.256043
 ---------------------------------------------------------------------
                    Distance matrix (angstroms):
                    1          2          3          4          5
     1  C    0.000000
     2  C    1.520543   0.000000
     3  C    2.586473   1.520543   0.000000
     4  O    2.394679   1.215702   2.394679   0.000000
     5  H    1.097397   2.164772   2.854167   3.113745   0.000000
     6  H    1.091763   2.151771   3.507895   2.530266   1.788509
     7  H    1.097397   2.164772   2.854167   3.113746   1.761834
     8  H    2.854167   2.164772   1.097397   3.113746   2.683960
     9  H    3.507895   2.151771   1.091763   2.530266   3.838102
    10  H    2.854167   2.164772   1.097397   3.113745   3.210562
                    6          7          8          9         10
     6  H    0.000000
     7  H    1.788509   0.000000
     8  H    3.838102   3.210561   0.000000
     9  H    4.296733   3.838102   1.788509   0.000000
    10  H    3.838102   2.683960   1.761834   1.788509   0.000000
 Stoichiometry    C3H6O
 Framework group  C2[C2(CO),X(C2H6)]
 Deg. of freedom    12
 Full point group                 C2      NOp   2
 RotChk:  IX=3 Diff= 4.25D-09
 Largest Abelian subgroup         C2      NOp   2
 Largest concise Abelian subgroup C2      NOp   2
                         Standard orientation:                         
 ---------------------------------------------------------------------
 Center     Atomic      Atomic             Coordinates (Angstroms)
 Number     Number       Type             X           Y           Z
 ---------------------------------------------------------------------
      1          6           0        0.000000   -1.293236   -0.614660
      2          6           0        0.000000    0.000000    0.185084
      3          6           0        0.000000    1.293236   -0.614660
      4          8           0        0.000000    0.000000    1.400787
      5          1           0       -0.880917   -1.341980   -1.267262
      6          1           0        0.000000   -2.148366    0.064087
      7          1           0        0.880917   -1.341980   -1.267263
      8          1           0       -0.880917    1.341980   -1.267263
      9          1           0        0.000000    2.148366    0.064087
     10          1           0        0.880917    1.341980   -1.267262
 ---------------------------------------------------------------------
 Rotational constants (GHZ):     10.0951452      8.4468326      4.8765055
 Leave Link  202 at Thu Mar 19 17:38:41 2026, MaxMem=   536870912 cpu:         0.0
 (Enter C:\G09W\l601.exe)
 Copying SCF densities to generalized density rwf, IOpCl= 0 IROHF=0.

 **********************************************************************

            Population analysis using the SCF density.

 **********************************************************************

 Orbital symmetries:
       Occupied  (A) (A) (B) (A) (A) (A) (B) (A) (B) (B) (A) (A)
                 (A) (B) (B) (B)
       Virtual   (B) (A) (A) (B) (B) (A) (B) (A) (B) (A) (A) (B)
                 (A) (B) (A) (A) (B) (B) (B) (A) (B) (A) (A) (B)
                 (A) (A) (B) (B) (B) (A) (A) (B) (B) (A) (A) (B)
                 (A) (B) (A) (B) (A) (A) (A) (B) (B) (B) (A) (A)
                 (B) (A) (A) (B) (A) (A) (B) (A)
 The electronic state is 1-A.
 Alpha  occ. eigenvalues --  -19.13579 -10.27764 -10.19078 -10.19077  -1.03559
 Alpha  occ. eigenvalues --   -0.76690  -0.70974  -0.53080  -0.45783  -0.45760
 Alpha  occ. eigenvalues --   -0.44769  -0.40399  -0.39298  -0.37849  -0.34696
 Alpha  occ. eigenvalues --   -0.24419
 Alpha virt. eigenvalues --   -0.01117   0.08795   0.13746   0.14814   0.16109
 Alpha virt. eigenvalues --    0.17074   0.18034   0.19817   0.29025   0.32352
 Alpha virt. eigenvalues --    0.49208   0.53666   0.56479   0.57377   0.57617
 Alpha virt. eigenvalues --    0.69207   0.70153   0.70728   0.77085   0.78448
 Alpha virt. eigenvalues --    0.83310   0.87471   0.88528   0.89818   0.92020
 Alpha virt. eigenvalues --    0.93796   0.96023   1.01829   1.10022   1.17903
 Alpha virt. eigenvalues --    1.40545   1.41958   1.42775   1.56257   1.76501
 Alpha virt. eigenvalues --    1.77728   1.79037   1.80519   1.90988   1.93365
 Alpha virt. eigenvalues --    2.02742   2.07292   2.11792   2.19820   2.20715
 Alpha virt. eigenvalues --    2.36092   2.40903   2.48335   2.59689   2.69170
 Alpha virt. eigenvalues --    2.95615   2.97622   3.94541   4.08796   4.27028
 Alpha virt. eigenvalues --    4.44327
          Condensed to atoms (all electrons):
               1          2          3          4          5          6
     1  C    5.386451   0.311128  -0.147340  -0.085089   0.349166   0.349262
     2  C    0.311128   4.427371   0.311128   0.615828  -0.020186  -0.018745
     3  C   -0.147340   0.311128   5.386451  -0.085089   0.003564   0.006250
     4  O   -0.085089   0.615828  -0.085089   7.963157   0.001478   0.005792
     5  H    0.349166  -0.020186   0.003564   0.001478   0.548834  -0.021657
     6  H    0.349262  -0.018745   0.006250   0.005792  -0.021657   0.520789
     7  H    0.349166  -0.020186   0.003564   0.001478  -0.027928  -0.021657
     8  H    0.003564  -0.020186   0.349166   0.001478   0.001048  -0.000125
     9  H    0.006250  -0.018745   0.349262   0.005792  -0.000125  -0.000185
    10  H    0.003564  -0.020186   0.349166   0.001478  -0.000436  -0.000125
               7          8          9         10
     1  C    0.349166   0.003564   0.006250   0.003564
     2  C   -0.020186  -0.020186  -0.018745  -0.020186
     3  C    0.003564   0.349166   0.349262   0.349166
     4  O    0.001478   0.001478   0.005792   0.001478
     5  H   -0.027928   0.001048  -0.000125  -0.000436
     6  H   -0.021657  -0.000125  -0.000185  -0.000125
     7  H    0.548834  -0.000436  -0.000125   0.001048
     8  H   -0.000436   0.548834  -0.021657  -0.027928
     9  H   -0.000125  -0.021657   0.520789  -0.021657
    10  H    0.001048  -0.027928  -0.021657   0.548834
 Mulliken charges:
               1
     1  C   -0.526121
     2  C    0.452780
     3  C   -0.526121
     4  O   -0.426302
     5  H    0.166241
     6  H    0.180400
     7  H    0.166241
     8  H    0.166241
     9  H    0.180400
    10  H    0.166241
 Sum of Mulliken charges =   0.00000
 Mulliken charges with hydrogens summed into heavy atoms:
               1
     1  C   -0.013239
     2  C    0.452780
     3  C   -0.013239
     4  O   -0.426302
 Electronic spatial extent (au):  <R**2>=            293.5847
 Charge=              0.0000 electrons
 Dipole moment (field-independent basis, Debye):
    X=              0.0000    Y=              0.0000    Z=             -2.8155  Tot=              2.8155
 Quadrupole moment (field-independent basis, Debye-Ang):
   XX=            -23.8866   YY=            -23.4911   ZZ=            -28.2009
   XY=              0.0000   XZ=              0.0000   YZ=              0.0000
 Traceless Quadrupole moment (field-independent basis, Debye-Ang):
   XX=              1.3063   YY=              1.7017   ZZ=             -3.0080
   XY=              0.0000   XZ=              0.0000   YZ=              0.0000
 Octapole moment (field-independent basis, Debye-Ang**2):
  XXX=              0.0000  YYY=              0.0000  ZZZ=             -1.5874  XYY=              0.0000
  XXY=              0.0000  XXZ=              0.3938  XZZ=              0.0000  YZZ=              0.0000
  YYZ=              2.3734  XYZ=              0.0000
 Hexadecapole moment (field-independent basis, Debye-Ang**3):
 XXXX=            -35.2338 YYYY=           -195.5059 ZZZZ=           -147.8645 XXXY=              0.0000
 XXXZ=              0.0000 YYYX=              0.0000 YYYZ=              0.0000 ZZZX=              0.0000
 ZZZY=              0.0000 XXYY=            -39.4090 XXZZ=            -26.5135 YYZZ=            -57.0483
 XXYZ=              0.0000 YYXZ=              0.0000 ZZXY=              0.0000
 N-N= 1.189653032966D+02 E-N=-6.879076786315D+02  KE= 1.913452663267D+02
 Symmetry A    KE= 1.417519237815D+02
 Symmetry B    KE= 4.959334254517D+01
 No NMR shielding tensors so no spin-rotation constants.
 Leave Link  601 at Thu Mar 19 17:38:42 2026, MaxMem=   536870912 cpu:         0.0
 (Enter C:\G09W\l9999.exe)
 1|1|UNPC-DESKTOP-GS7R1K3|FOpt|RB3LYP|6-31G(d)|C3H6O1|1172|19-Mar-2026|
 0||#p opt B3LYP/6-31G(d)||acetone [rdkit]||0,1|C,-1.3000020664,-0.0706
 189248,0.0432956537|C,0.0369850152,0.4832189443,-0.4233740087|C,1.2820
 445108,-0.16400502,0.1622704294|O,0.1068551879,1.3960939734,-1.2231923
 346|H,-1.3766677158,-1.1397982267,-0.1917754074|H,-2.1146591829,0.4699
 299665,-0.4425912011|H,-1.3956716019,0.0219974241,1.1325844078|H,1.302
 699869,-1.2367043799,-0.0683155142|H,2.1747210371,0.3147933764,-0.2449
 470457|H,1.2836960602,-0.0749077202,1.2560434172||Version=EM64W-G09Rev
 D.01|State=1-A|HF=-193.1556945|RMSD=5.136e-009|RMSF=2.301e-005|Dipole=
 -0.0636634,-0.8317823,0.7287687|Quadrupole=1.253595,-0.8370358,-0.4165
 592,-0.1490249,0.134785,1.5841194|PG=C02 [C2(C1O1),X(C2H6)]||@


 IN THE LONG RUN, DIGGING FOR TRUTH HAS ALWAYS PROVED NOT ONLY 
 MORE INTERESTING BUT MORE PROFITABLE THAN DIGGING FOR GOLD.

                             -- GEORGE R. HARRISON
 Job cpu time:       0 days  0 hours  0 minutes 36.0 seconds.
 File lengths (MBytes):  RWF=      5 Int=      0 D2E=      0 Chk=      2 Scr=      1
 Normal termination of Gaussian 09 at Thu Mar 19 17:38:43 2026.
