 Entering Gaussian System, Link 0=C:\G09W\g09.exe
 Input=acetone_xtb.com
 Output=C:\workspace\delta_chem\benchmark_results\acetone\acetone_xtb.out
 Initial command:
 C:\G09W\l1.exe ".\Gau-5892.inp" "C:\workspace\delta_chem\benchmark_results\acetone\acetone_xtb.out" /scrdir=".\"
 Entering Link 1 = C:\G09W\l1.exe PID=      2100.
  
 Copyright (c) 1988,1990,1992,1993,1995,1998,2003,2009,2013,
            Gaussian, Inc.  All Rights Reserved.
  
 This is part of the Gaussian(R) 09 program.  It is based on
 the Gaussian(R) 03 system (copyright 2003, Gaussian, Inc.),
 the Gaussian(R) 98 system (copyright 1998, Gaussian, Inc.),
 the Gaussian(R) 94 system (copyright 1995, Gaussian, Inc.),
 the Gaussian 92(TM) system (copyright 1992, Gaussian, Inc.),
 the Gaussian 90(TM) system (copyright 1990, Gaussian, Inc.),
 the Gaussian 88(TM) system (copyright 1988, Gaussian, Inc.),
 the Gaussian 86(TM) system (copyright 1986, Carnegie Mellon
 University), and the Gaussian 82(TM) system (copyright 1983,
 Carnegie Mellon University). Gaussian is a federally registered
 trademark of Gaussian, Inc.
  
 This software contains proprietary and confidential information,
 including trade secrets, belonging to Gaussian, Inc.
  
 This software is provided under written license and may be
 used, copied, transmitted, or stored only in accord with that
 written license.
  
 The following legend is applicable only to US Government
 contracts under FAR:
  
                    RESTRICTED RIGHTS LEGEND
  
 Use, reproduction and disclosure by the US Government is
 subject to restrictions as set forth in subparagraphs (a)
 and (c) of the Commercial Computer Software - Restricted
 Rights clause in FAR 52.227-19.
  
 Gaussian, Inc.
 340 Quinnipiac St., Bldg. 40, Wallingford CT 06492
  
  
 ---------------------------------------------------------------
 Warning -- This program may not be used in any manner that
 competes with the business of Gaussian, Inc. or will provide
 assistance to any competitor of Gaussian, Inc.  The licensee
 of this program is prohibited from giving any competitor of
 Gaussian, Inc. access to this program.  By using this program,
 the user acknowledges that Gaussian, Inc. is engaged in the
 business of creating and licensing software in the field of
 computational chemistry and represents and warrants to the
 licensee that it is not a competitor of Gaussian, Inc. and that
 it will not use this program in any manner prohibited above.
 ---------------------------------------------------------------
  

 Cite this work as:
 Gaussian 09, Revision D.01,
 M. J. Frisch, G. W. Trucks, H. B. Schlegel, G. E. Scuseria, 
 M. A. Robb, J. R. Cheeseman, G. Scalmani, V. Barone, B. Mennucci, 
 G. A. Petersson, H. Nakatsuji, M. Caricato, X. Li, H. P. Hratchian, 
 A. F. Izmaylov, J. Bloino, G. Zheng, J. L. Sonnenberg, M. Hada, 
 M. Ehara, K. Toyota, R. Fukuda, J. Hasegawa, M. Ishida, T. Nakajima, 
 Y. Honda, O. Kitao, H. Nakai, T. Vreven, J. A. Montgomery, Jr., 
 J. E. Peralta, F. Ogliaro, M. Bearpark, J. J. Heyd, E. Brothers, 
 K. N. Kudin, V. N. Staroverov, T. Keith, R. Kobayashi, J. Normand, 
 K. Raghavachari, A. Rendell, J. C. Burant, S. S. Iyengar, J. Tomasi, 
 M. Cossi, N. Rega, J. M. Millam, M. Klene, J. E. Knox, J. B. Cross, 
 V. Bakken, C. Adamo, J. Jaramillo, R. Gomperts, R. E. Stratmann, 
 O. Yazyev, A. J. Austin, R. Cammi, C. Pomelli, J. W. Ochterski, 
 R. L. Martin, K. Morokuma, V. G. Zakrzewski, G. A. Voth, 
 P. Salvador, J. J. Dannenberg, S. Dapprich, A. D. Daniels, 
 O. Farkas, J. B. Foresman, J. V. Ortiz, J. Cioslowski, 
 and D. J. Fox, Gaussian, Inc., Wallingford CT, 2013.
 
 ******************************************
 Gaussian 09:  EM64W-G09RevD.01 13-Apr-2013
                19-Mar-2026 
 ******************************************
 %NProcShared=4
 Will use up to    4 processors via shared memory.
 %Mem=4GB
 %Chk=acetone_xtb.chk
 ---------------------
 #p opt B3LYP/6-31G(d)
 ---------------------
 1/14=-1,18=20,19=15,26=3,38=1/1,3;
 2/9=110,12=2,17=6,18=5,40=1/2;
 3/5=1,6=6,7=1,11=2,16=1,25=1,30=1,71=1,74=-5/1,2,3;
 4//1;
 5/5=2,38=5/2;
 6/7=2,8=2,9=2,10=2,28=1/1;
 7//1,2,3,16;
 1/14=-1,18=20,19=15,26=3/3(2);
 2/9=110/2;
 99//99;
 2/9=110/2;
 3/5=1,6=6,7=1,11=2,16=1,25=1,30=1,71=1,74=-5/1,2,3;
 4/5=5,16=3,69=1/1;
 5/5=2,38=5/2;
 7//1,2,3,16;
 1/14=-1,18=20,19=15,26=3/3(-5);
 2/9=110/2;
 6/7=2,8=2,9=2,10=2,19=2,28=1/1;
 99/9=1/99;
 Leave Link    1 at Thu Mar 19 17:38:48 2026, MaxMem=   536870912 cpu:         1.0
 (Enter C:\G09W\l101.exe)
 -------------
 acetone [xtb]
 -------------
 Symbolic Z-matrix:
 Charge =  0 Multiplicity = 1
 C                    -2.03465  -0.12445   0.66562 
 C                     0.53323  -1.31045   1.26283 
 C                     1.40138  -0.28196  -1.30642 
 O                     0.09457   0.29997   0.11806 
 H                     1.17164   2.54248   0.41576 
 H                    -1.11254  -1.57598  -1.50032 
 H                    -1.16513   0.45556  -0.58689 
 H                     0.30147  -1.06262  -0.34308 
 H                    -0.46289   0.03911   1.49929 
 H                     1.27291   1.01833  -0.22484 
 
 Add virtual bond connecting atoms H10        and O4         Dist= 2.69D+00.
 Add virtual bond connecting atoms H7         and O4         Dist= 2.74D+00.
 Add virtual bond connecting atoms H8         and O4         Dist= 2.75D+00.
 Add virtual bond connecting atoms H9         and O4         Dist= 2.86D+00.
 Add virtual bond connecting atoms H7         and C1         Dist= 3.08D+00.
 Add virtual bond connecting atoms H9         and C1         Dist= 3.38D+00.
 Add virtual bond connecting atoms H8         and C2         Dist= 3.10D+00.
 Add virtual bond connecting atoms H9         and C2         Dist= 3.20D+00.
 Add virtual bond connecting atoms H10        and H5         Dist= 3.13D+00.
 Add virtual bond connecting atoms H8         and C3         Dist= 3.13D+00.
 Add virtual bond connecting atoms H10        and C3         Dist= 3.21D+00.
 Add virtual bond connecting atoms H8         and H6         Dist= 3.59D+00.
 NAtoms=     10 NQM=       10 NQMF=       0 NMMI=      0 NMMIF=      0
                NMic=       0 NMicF=      0.
                    Isotopes and Nuclear Properties:
 (Nuclear quadrupole moments (NQMom) in fm**2, nuclear magnetic moments (NMagM)
  in nuclear magnetons)

  Atom         1           2           3           4           5           6           7           8           9          10
 IAtWgt=          12          12          12          16           1           1           1           1           1           1
 AtmWgt=  12.0000000  12.0000000  12.0000000  15.9949146   1.0078250   1.0078250   1.0078250   1.0078250   1.0078250   1.0078250
 NucSpn=           0           0           0           0           1           1           1           1           1           1
 AtZEff=   0.0000000   0.0000000   0.0000000   0.0000000   0.0000000   0.0000000   0.0000000   0.0000000   0.0000000   0.0000000
 NQMom=    0.0000000   0.0000000   0.0000000   0.0000000   0.0000000   0.0000000   0.0000000   0.0000000   0.0000000   0.0000000
 NMagM=    0.0000000   0.0000000   0.0000000   0.0000000   2.7928460   2.7928460   2.7928460   2.7928460   2.7928460   2.7928460
 AtZNuc=   6.0000000   6.0000000   6.0000000   8.0000000   1.0000000   1.0000000   1.0000000   1.0000000   1.0000000   1.0000000
 Leave Link  101 at Thu Mar 19 17:38:48 2026, MaxMem=   536870912 cpu:         0.0
 (Enter C:\G09W\l103.exe)

 GradGradGradGradGradGradGradGradGradGradGradGradGradGradGradGradGradGrad
 Berny optimization.
 Initialization pass.
                           ----------------------------
                           !    Initial Parameters    !
                           ! (Angstroms and Degrees)  !
 --------------------------                            --------------------------
 ! Name  Definition              Value          Derivative Info.                !
 --------------------------------------------------------------------------------
 ! R1    R(1,7)                  1.6313         estimate D2E/DX2                !
 ! R2    R(1,9)                  1.7867         estimate D2E/DX2                !
 ! R3    R(2,8)                  1.6414         estimate D2E/DX2                !
 ! R4    R(2,9)                  1.694          estimate D2E/DX2                !
 ! R5    R(3,8)                  1.6575         estimate D2E/DX2                !
 ! R6    R(3,10)                 1.6962         estimate D2E/DX2                !
 ! R7    R(4,7)                  1.4519         estimate D2E/DX2                !
 ! R8    R(4,8)                  1.4533         estimate D2E/DX2                !
 ! R9    R(4,9)                  1.5121         estimate D2E/DX2                !
 ! R10   R(4,10)                 1.422          estimate D2E/DX2                !
 ! R11   R(5,10)                 1.6564         estimate D2E/DX2                !
 ! R12   R(6,8)                  1.8979         estimate D2E/DX2                !
 ! A1    A(7,1,9)               81.7672         estimate D2E/DX2                !
 ! A2    A(8,2,9)               86.1727         estimate D2E/DX2                !
 ! A3    A(8,3,10)              86.571          estimate D2E/DX2                !
 ! A4    A(7,4,8)               94.0103         estimate D2E/DX2                !
 ! A5    A(7,4,9)               98.1717         estimate D2E/DX2                !
 ! A6    A(7,4,10)             123.2115         estimate D2E/DX2                !
 ! A7    A(8,4,9)              100.4032         estimate D2E/DX2                !
 ! A8    A(8,4,10)             106.2097         estimate D2E/DX2                !
 ! A9    A(9,4,10)             127.7986         estimate D2E/DX2                !
 ! A10   A(1,7,4)               92.9556         estimate D2E/DX2                !
 ! A11   A(2,8,3)              123.0975         estimate D2E/DX2                !
 ! A12   A(2,8,4)               81.4437         estimate D2E/DX2                !
 ! A13   A(2,8,6)              131.3703         estimate D2E/DX2                !
 ! A14   A(3,8,4)               80.6366         estimate D2E/DX2                !
 ! A15   A(3,8,6)              105.5103         estimate D2E/DX2                !
 ! A16   A(4,8,6)              109.9379         estimate D2E/DX2                !
 ! A17   A(1,9,2)              112.287          estimate D2E/DX2                !
 ! A18   A(1,9,4)               85.0603         estimate D2E/DX2                !
 ! A19   A(2,9,4)               78.062          estimate D2E/DX2                !
 ! A20   A(3,10,4)              80.1693         estimate D2E/DX2                !
 ! A21   A(3,10,5)             163.063          estimate D2E/DX2                !
 ! A22   A(4,10,5)             108.7186         estimate D2E/DX2                !
 ! D1    D(9,1,7,4)             10.2444         estimate D2E/DX2                !
 ! D2    D(7,1,9,2)            -84.797          estimate D2E/DX2                !
 ! D3    D(7,1,9,4)             -9.8558         estimate D2E/DX2                !
 ! D4    D(9,2,8,3)             99.1261         estimate D2E/DX2                !
 ! D5    D(9,2,8,4)             26.2515         estimate D2E/DX2                !
 ! D6    D(9,2,8,6)            -82.8355         estimate D2E/DX2                !
 ! D7    D(8,2,9,1)             54.0809         estimate D2E/DX2                !
 ! D8    D(8,2,9,4)            -25.4461         estimate D2E/DX2                !
 ! D9    D(10,3,8,2)           -56.2351         estimate D2E/DX2                !
 ! D10   D(10,3,8,4)            17.058          estimate D2E/DX2                !
 ! D11   D(10,3,8,6)           125.2925         estimate D2E/DX2                !
 ! D12   D(8,3,10,4)           -17.4701         estimate D2E/DX2                !
 ! D13   D(8,3,10,5)          -140.769          estimate D2E/DX2                !
 ! D14   D(8,4,7,1)             88.9961         estimate D2E/DX2                !
 ! D15   D(9,4,7,1)            -12.1283         estimate D2E/DX2                !
 ! D16   D(10,4,7,1)          -158.6472         estimate D2E/DX2                !
 ! D17   D(7,4,8,2)           -129.2511         estimate D2E/DX2                !
 ! D18   D(7,4,8,3)            104.9829         estimate D2E/DX2                !
 ! D19   D(7,4,8,6)              1.7747         estimate D2E/DX2                !
 ! D20   D(9,4,8,2)            -30.1753         estimate D2E/DX2                !
 ! D21   D(9,4,8,3)           -155.9413         estimate D2E/DX2                !
 ! D22   D(9,4,8,6)            100.8505         estimate D2E/DX2                !
 ! D23   D(10,4,8,2)           104.4365         estimate D2E/DX2                !
 ! D24   D(10,4,8,3)           -21.3295         estimate D2E/DX2                !
 ! D25   D(10,4,8,6)          -124.5377         estimate D2E/DX2                !
 ! D26   D(7,4,9,1)             11.0868         estimate D2E/DX2                !
 ! D27   D(7,4,9,2)            125.1252         estimate D2E/DX2                !
 ! D28   D(8,4,9,1)            -84.5486         estimate D2E/DX2                !
 ! D29   D(8,4,9,2)             29.4898         estimate D2E/DX2                !
 ! D30   D(10,4,9,1)           155.3462         estimate D2E/DX2                !
 ! D31   D(10,4,9,2)           -90.6154         estimate D2E/DX2                !
 ! D32   D(7,4,10,3)           -85.2533         estimate D2E/DX2                !
 ! D33   D(7,4,10,5)            79.8493         estimate D2E/DX2                !
 ! D34   D(8,4,10,3)            20.85           estimate D2E/DX2                !
 ! D35   D(8,4,10,5)          -174.0474         estimate D2E/DX2                !
 ! D36   D(9,4,10,3)           138.4614         estimate D2E/DX2                !
 ! D37   D(9,4,10,5)           -56.436          estimate D2E/DX2                !
 --------------------------------------------------------------------------------
 Trust Radius=3.00D-01 FncErr=1.00D-07 GrdErr=1.00D-06
 Number of steps in this run=     81 maximum allowed number of steps=    100.
 GradGradGradGradGradGradGradGradGradGradGradGradGradGradGradGradGradGrad

 Leave Link  103 at Thu Mar 19 17:38:48 2026, MaxMem=   536870912 cpu:         0.0
 (Enter C:\G09W\l202.exe)
                          Input orientation:                          
 ---------------------------------------------------------------------
 Center     Atomic      Atomic             Coordinates (Angstroms)
 Number     Number       Type             X           Y           Z
 ---------------------------------------------------------------------
      1          6           0       -2.034648   -0.124450    0.665618
      2          6           0        0.533232   -1.310448    1.262826
      3          6           0        1.401384   -0.281956   -1.306423
      4          8           0        0.094565    0.299968    0.118059
      5          1           0        1.171645    2.542477    0.415764
      6          1           0       -1.112541   -1.575978   -1.500321
      7          1           0       -1.165126    0.455563   -0.586890
      8          1           0        0.301469   -1.062618   -0.343079
      9          1           0       -0.462889    0.039108    1.499287
     10          1           0        1.272910    1.018334   -0.224842
 ---------------------------------------------------------------------
                    Distance matrix (angstroms):
                    1          2          3          4          5
     1  C    0.000000
     2  C    2.890892   0.000000
     3  C    3.964854   2.900435   0.000000
     4  O    2.239085   2.023947   2.018801   0.000000
     5  H    4.177947   3.996263   3.316041   2.505509   0.000000
     6  H    2.765593   3.227082   2.834062   2.755981   5.084344
     7  H    1.631337   3.069962   2.765616   1.451891   3.289533
     8  H    2.712024   1.641361   1.657491   1.453306   3.785466
     9  H    1.786667   1.693952   3.383874   1.512150   3.180029
    10  H    3.610930   2.860682   1.696195   1.422015   1.656395
                    6          7          8          9         10
     6  H    0.000000
     7  H    2.228066   0.000000
     8  H    1.897939   2.124905   0.000000
     9  H    3.468170   2.240248   2.278674   0.000000
    10  H    3.748023   2.528204   2.299573   2.635243   0.000000
 Stoichiometry    C3H6O
 Framework group  C1[X(C3H6O)]
 Deg. of freedom    24
 Full point group                 C1      NOp   1
 Largest Abelian subgroup         C1      NOp   1
 Largest concise Abelian subgroup C1      NOp   1
                         Standard orientation:                         
 ---------------------------------------------------------------------
 Center     Atomic      Atomic             Coordinates (Angstroms)
 Number     Number       Type             X           Y           Z
 ---------------------------------------------------------------------
      1          6           0       -2.035632   -0.498415    0.262122
      2          6           0       -0.171172    1.640575   -0.290840
      3          6           0        1.904154   -0.188271    0.581436
      4          8           0        0.116554   -0.362203   -0.340406
      5          1           0        1.072575   -1.573105   -2.314568
      6          1           0       -0.286794   -0.168459    2.379007
      7          1           0       -0.629133   -1.293765    0.486715
      8          1           0        0.422425    0.531792    0.763820
      9          1           0       -1.057272    0.361665   -0.960683
     10          1           0        1.361662   -0.683842   -0.947350
 ---------------------------------------------------------------------
 Rotational constants (GHZ):      7.8884969      4.2240202      3.5577372
 Leave Link  202 at Thu Mar 19 17:38:49 2026, MaxMem=   536870912 cpu:         0.0
 (Enter C:\G09W\l301.exe)
 Standard basis: 6-31G(d) (6D, 7F)
 Ernie: Thresh=  0.10000D-02 Tol=  0.10000D-05 Strict=F.
 There are    72 symmetry adapted cartesian basis functions of A   symmetry.
 There are    72 symmetry adapted basis functions of A   symmetry.
    72 basis functions,   136 primitive gaussians,    72 cartesian basis functions
    16 alpha electrons       16 beta electrons
       nuclear repulsion energy        95.6927117588 Hartrees.
 IExCor=  402 DFT=T Ex+Corr=B3LYP ExCW=0 ScaHFX=  0.200000
 ScaDFX=  0.800000  0.720000  1.000000  0.810000 ScalE2=  1.000000  1.000000
 IRadAn=      0 IRanWt=     -1 IRanGd=            0 ICorTp=0 IEmpDi=  4
 NAtoms=   10 NActive=   10 NUniq=   10 SFac= 1.00D+00 NAtFMM=   60 NAOKFM=F Big=F
 Integral buffers will be    131072 words long.
 Raffenetti 2 integral format.
 Two-electron integral symmetry is turned on.
 Leave Link  301 at Thu Mar 19 17:38:49 2026, MaxMem=   536870912 cpu:         0.0
 (Enter C:\G09W\l302.exe)
 NPDir=0 NMtPBC=     1 NCelOv=     1 NCel=       1 NClECP=     1 NCelD=      1
         NCelK=      1 NCelE2=     1 NClLst=     1 CellRange=     0.0.
 One-electron integrals computed using PRISM.
 NBasis=    72 RedAO= T EigKep=  2.38D-02  NBF=    72
 NBsUse=    72 1.00D-06 EigRej= -1.00D+00 NBFU=    72
 Precomputing XC quadrature grid using
 IXCGrd= 4 IRadAn=           0 IRanWt=          -1 IRanGd=           0 AccXCQ= 0.00D+00.
 Generated NRdTot=       0 NPtTot=           0 NUsed=           0 NTot=          32
 NSgBfM=    72    72    72    72    72 MxSgAt=    10 MxSgA2=    10.
 Leave Link  302 at Thu Mar 19 17:38:50 2026, MaxMem=   536870912 cpu:         0.0
 (Enter C:\G09W\l303.exe)
 DipDrv:  MaxL=1.
 Leave Link  303 at Thu Mar 19 17:38:50 2026, MaxMem=   536870912 cpu:         0.0
 (Enter C:\G09W\l401.exe)
 ExpMin= 1.61D-01 ExpMax= 5.48D+03 ExpMxC= 8.25D+02 IAcc=1 IRadAn=         1 AccDes= 0.00D+00
 Harris functional with IExCor=  402 and IRadAn=       1 diagonalized for initial guess.
 HarFok:  IExCor=  402 AccDes= 0.00D+00 IRadAn=         1 IDoV= 1 UseB2=F ITyADJ=14
 ICtDFT=  3500011 ScaDFX=  1.000000  1.000000  1.000000  1.000000
 FoFCou: FMM=F IPFlag=           0 FMFlag=      100000 FMFlg1=           0
         NFxFlg=           0 DoJE=T BraDBF=F KetDBF=T FulRan=T
         wScrn=  0.000000 ICntrl=     500 IOpCl=  0 I1Cent=   200000004 NGrid=           0
         NMat0=    1 NMatS0=      1 NMatT0=    0 NMatD0=    1 NMtDS0=    0 NMtDT0=    0
 Petite list used in FoFCou.
 Harris En= -191.987510355767    
 JPrj=0 DoOrth=F DoCkMO=F.
 Leave Link  401 at Thu Mar 19 17:38:51 2026, MaxMem=   536870912 cpu:         1.0
 (Enter C:\G09W\l502.exe)
 Closed shell SCF:
 Using DIIS extrapolation, IDIIS=  1040.
 Integral symmetry usage will be decided dynamically.
 Keep R1 ints in memory in canonical form, NReq=4383602.
 IVT=       35086 IEndB=       35086 NGot=   536870912 MDV=   533381321
 LenX=   533381321 LenY=   533375696
 Requested convergence on RMS density matrix=1.00D-08 within 128 cycles.
 Requested convergence on MAX density matrix=1.00D-06.
 Requested convergence on             energy=1.00D-06.
 No special actions if energy rises.
 FoFCou: FMM=F IPFlag=           0 FMFlag=           0 FMFlg1=           0
         NFxFlg=           0 DoJE=F BraDBF=F KetDBF=F FulRan=T
         wScrn=  0.000000 ICntrl=     600 IOpCl=  0 I1Cent=           0 NGrid=           0
         NMat0=    1 NMatS0=   2628 NMatT0=    0 NMatD0=    1 NMtDS0=    0 NMtDT0=    0
 Symmetry not used in FoFCou.
 Integral accuracy reduced to 1.0D-05 until final iterations.

 Cycle   1  Pass 0  IDiag  1:
 E= -191.790248820911    
 DIIS: error= 2.56D-02 at cycle   1 NSaved=   1.
 NSaved= 1 IEnMin= 1 EnMin= -191.790248820911     IErMin= 1 ErrMin= 2.56D-02
 ErrMax= 2.56D-02  0.00D+00 EMaxC= 1.00D-01 BMatC= 1.11D-01 BMatP= 1.11D-01
 IDIUse=3 WtCom= 7.44D-01 WtEn= 2.56D-01
 Coeff-Com:  0.100D+01
 Coeff-En:   0.100D+01
 Coeff:      0.100D+01
 Gap=    -0.015 Goal=   None    Shift=    0.000
 GapD=   -0.015 DampG=0.250 DampE=0.500 DampFc=0.2500 IDamp=-1.
 Damping current iteration by 2.50D-01
 RMSDP=2.33D-02 MaxDP=3.78D-01              OVMax= 8.15D-01

 Cycle   2  Pass 0  IDiag  1:
 E= -191.700234378571     Delta-E=        0.090014442340 Rises=F Damp=T
 DIIS: error= 2.33D-02 at cycle   2 NSaved=   2.
 NSaved= 2 IEnMin= 1 EnMin= -191.790248820911     IErMin= 2 ErrMin= 2.33D-02
 ErrMax= 2.33D-02  0.00D+00 EMaxC= 1.00D-01 BMatC= 6.19D-02 BMatP= 1.11D-01
 IDIUse=3 WtCom= 7.67D-01 WtEn= 2.33D-01
 Coeff-Com:  0.411D+00 0.589D+00
 Coeff-En:   0.620D+00 0.380D+00
 Coeff:      0.460D+00 0.540D+00
 Gap=     0.074 Goal=   None    Shift=    0.000
 RMSDP=9.11D-03 MaxDP=1.56D-01 DE= 9.00D-02 OVMax= 8.32D-01

 Cycle   3  Pass 0  IDiag  1:
 E= -191.618089712996     Delta-E=        0.082144665575 Rises=F Damp=F
 DIIS: error= 4.84D-02 at cycle   3 NSaved=   3.
 NSaved= 3 IEnMin= 1 EnMin= -191.790248820911     IErMin= 2 ErrMin= 2.33D-02
 ErrMax= 4.84D-02  0.00D+00 EMaxC= 1.00D-01 BMatC= 1.90D-01 BMatP= 6.19D-02
 IDIUse=2 WtCom= 0.00D+00 WtEn= 1.00D+00
 EnCoef did     2 forward-backward iterations
 Coeff-En:   0.515D+00 0.266D+00 0.219D+00
 Coeff:      0.515D+00 0.266D+00 0.219D+00
 Gap=     0.097 Goal=   None    Shift=    0.000
 RMSDP=1.44D-02 MaxDP=2.50D-01 DE= 8.21D-02 OVMax= 6.85D-01

 Cycle   4  Pass 0  IDiag  1:
 E= -190.576822321676     Delta-E=        1.041267391320 Rises=F Damp=F
 DIIS: error= 1.06D-01 at cycle   4 NSaved=   4.
 NSaved= 4 IEnMin= 1 EnMin= -191.790248820911     IErMin= 2 ErrMin= 2.33D-02
 ErrMax= 1.06D-01  0.00D+00 EMaxC= 1.00D-01 BMatC= 9.60D-01 BMatP= 6.19D-02
 IDIUse=2 WtCom= 0.00D+00 WtEn= 1.00D+00
 EnCoef did   100 forward-backward iterations
 Coeff-En:   0.598D+00 0.774D-02 0.230D+00 0.165D+00
 Coeff:      0.598D+00 0.774D-02 0.230D+00 0.165D+00
 Gap=     0.022 Goal=   None    Shift=    0.000
 RMSDP=9.66D-03 MaxDP=1.93D-01 DE= 1.04D+00 OVMax= 5.43D-01

 Problem detected with inexpensive integrals.
 Switching to full accuracy and repeating last cycle.
 Cycle   5  Pass 1  IDiag  1:
 E= -190.576807650141     Delta-E=        0.000014671535 Rises=F Damp=F
 DIIS: error= 1.06D-01 at cycle   1 NSaved=   1.
 NSaved= 1 IEnMin= 1 EnMin= -190.576807650141     IErMin= 1 ErrMin= 1.06D-01
 ErrMax= 1.06D-01  0.00D+00 EMaxC= 1.00D-01 BMatC= 9.60D-01 BMatP= 9.60D-01
 IDIUse=3 WtCom= 0.00D+00 WtEn= 1.00D+00
 Coeff-Com:  0.100D+01
 Coeff-En:   0.100D+01
 Coeff:      0.100D+01
 Gap=    -0.133 Goal=   None    Shift=    0.000
 GapD=   -0.133 DampG=0.250 DampE=0.250 DampFc=0.2500 IDamp=-1.
 Damping current iteration by 2.50D-01
 RMSDP=3.90D-02 MaxDP=6.90D-01 DE= 1.47D-05 OVMax= 9.53D-01

 Cycle   6  Pass 1  IDiag  1:
 E= -191.159527779770     Delta-E=       -0.582720129628 Rises=F Damp=T
 DIIS: error= 1.49D-02 at cycle   2 NSaved=   2.
 NSaved= 2 IEnMin= 2 EnMin= -191.159527779770     IErMin= 2 ErrMin= 1.49D-02
 ErrMax= 1.49D-02  0.00D+00 EMaxC= 1.00D-01 BMatC= 3.91D-02 BMatP= 9.60D-01
 IDIUse=3 WtCom= 8.51D-01 WtEn= 1.49D-01
 Coeff-Com:  0.100D-01 0.990D+00
 Coeff-En:   0.275D+00 0.725D+00
 Coeff:      0.495D-01 0.950D+00
 Gap=    -0.277 Goal=   None    Shift=    0.000
 RMSDP=1.61D-02 MaxDP=2.13D-01 DE=-5.83D-01 OVMax= 8.61D-01

 Cycle   7  Pass 1  IDiag  1:
 E= -191.073688899511     Delta-E=        0.085838880259 Rises=F Damp=F
 DIIS: error= 8.11D-02 at cycle   3 NSaved=   3.
 NSaved= 3 IEnMin= 2 EnMin= -191.159527779770     IErMin= 2 ErrMin= 1.49D-02
 ErrMax= 8.11D-02  0.00D+00 EMaxC= 1.00D-01 BMatC= 4.40D-01 BMatP= 3.91D-02
 IDIUse=2 WtCom= 0.00D+00 WtEn= 1.00D+00
 EnCoef did     2 forward-backward iterations
 Coeff-En:   0.163D+00 0.428D+00 0.410D+00
 Coeff:      0.163D+00 0.428D+00 0.410D+00
 Gap=     0.019 Goal=   None    Shift=    0.000
 RMSDP=2.33D-02 MaxDP=4.64D-01 DE= 8.58D-02 OVMax= 9.05D-01

 Cycle   8  Pass 1  IDiag  1:
 E= -188.153216622795     Delta-E=        2.920472276716 Rises=F Damp=F
 DIIS: error= 1.24D-01 at cycle   4 NSaved=   4.
 NSaved= 4 IEnMin= 2 EnMin= -191.159527779770     IErMin= 2 ErrMin= 1.49D-02
 ErrMax= 1.24D-01  0.00D+00 EMaxC= 1.00D-01 BMatC= 2.06D+00 BMatP= 3.91D-02
 IDIUse=2 WtCom= 0.00D+00 WtEn= 1.00D+00
 EnCoef did   100 forward-backward iterations
 Coeff-En:   0.343D+00 0.828D-02 0.391D+00 0.258D+00
 Coeff:      0.343D+00 0.828D-02 0.391D+00 0.258D+00
 Gap=     0.017 Goal=   None    Shift=    0.000
 RMSDP=1.81D-02 MaxDP=3.80D-01 DE= 2.92D+00 OVMax= 8.40D-01

 Cycle   9  Pass 1  IDiag  1:
 E= -191.596474156175     Delta-E=       -3.443257533381 Rises=F Damp=F
 DIIS: error= 5.17D-02 at cycle   5 NSaved=   5.
 NSaved= 5 IEnMin= 5 EnMin= -191.596474156175     IErMin= 2 ErrMin= 1.49D-02
 ErrMax= 5.17D-02  0.00D+00 EMaxC= 1.00D-01 BMatC= 2.11D-01 BMatP= 3.91D-02
 IDIUse=2 WtCom= 0.00D+00 WtEn= 1.00D+00
 EnCoef did     2 forward-backward iterations
 Coeff-En:   0.165D+00 0.000D+00 0.224D+00 0.000D+00 0.611D+00
 Coeff:      0.165D+00 0.000D+00 0.224D+00 0.000D+00 0.611D+00
 Gap=     0.062 Goal=   None    Shift=    0.000
 RMSDP=2.10D-02 MaxDP=3.47D-01 DE=-3.44D+00 OVMax= 9.53D-01

 Cycle  10  Pass 1  IDiag  1:
 E= -188.323500488443     Delta-E=        3.272973667733 Rises=F Damp=F
 DIIS: error= 2.08D-01 at cycle   6 NSaved=   6.
 NSaved= 6 IEnMin= 5 EnMin= -191.596474156175     IErMin= 2 ErrMin= 1.49D-02
 ErrMax= 2.08D-01  0.00D+00 EMaxC= 1.00D-01 BMatC= 2.49D+00 BMatP= 3.91D-02
 IDIUse=2 WtCom= 0.00D+00 WtEn= 1.00D+00
 EnCoef did     5 forward-backward iterations
 Coeff-En:   0.168D+00 0.000D+00 0.184D+00 0.000D+00 0.585D+00 0.633D-01
 Coeff:      0.168D+00 0.000D+00 0.184D+00 0.000D+00 0.585D+00 0.633D-01
 Gap=    -0.043 Goal=   None    Shift=    0.000
 RMSDP=1.57D-02 MaxDP=2.88D-01 DE= 3.27D+00 OVMax= 8.91D-01

 Cycle  11  Pass 1  IDiag  1:
 E= -191.593796330371     Delta-E=       -3.270295841928 Rises=F Damp=F
 DIIS: error= 6.78D-02 at cycle   7 NSaved=   7.
 NSaved= 7 IEnMin= 5 EnMin= -191.596474156175     IErMin= 2 ErrMin= 1.49D-02
 ErrMax= 6.78D-02  0.00D+00 EMaxC= 1.00D-01 BMatC= 3.01D-01 BMatP= 3.91D-02
 IDIUse=2 WtCom= 0.00D+00 WtEn= 1.00D+00
 EnCoef did     7 forward-backward iterations
 Coeff-En:   0.926D-01 0.000D+00 0.511D-01 0.000D+00 0.481D+00 0.000D+00
 Coeff-En:   0.375D+00
 Coeff:      0.926D-01 0.000D+00 0.511D-01 0.000D+00 0.481D+00 0.000D+00
 Coeff:      0.375D+00
 Gap=     0.057 Goal=   None    Shift=    0.000
 RMSDP=9.23D-03 MaxDP=1.58D-01 DE=-3.27D+00 OVMax= 3.87D-01

 Cycle  12  Pass 1  IDiag  1:
 E= -191.764947235597     Delta-E=       -0.171150905226 Rises=F Damp=F
 DIIS: error= 3.37D-02 at cycle   8 NSaved=   8.
 NSaved= 8 IEnMin= 8 EnMin= -191.764947235597     IErMin= 2 ErrMin= 1.49D-02
 ErrMax= 3.37D-02  0.00D+00 EMaxC= 1.00D-01 BMatC= 1.08D-01 BMatP= 3.91D-02
 IDIUse=2 WtCom= 0.00D+00 WtEn= 1.00D+00
 EnCoef did     3 forward-backward iterations
 Coeff-En:   0.000D+00 0.000D+00 0.000D+00 0.000D+00 0.340D+00 0.000D+00
 Coeff-En:   0.295D+00 0.365D+00
 Coeff:      0.000D+00 0.000D+00 0.000D+00 0.000D+00 0.340D+00 0.000D+00
 Coeff:      0.295D+00 0.365D+00
 Gap=     0.036 Goal=   None    Shift=    0.000
 RMSDP=7.60D-03 MaxDP=1.16D-01 DE=-1.71D-01 OVMax= 3.60D-01

 Cycle  13  Pass 1  IDiag  1:
 E= -191.895541104820     Delta-E=       -0.130593869222 Rises=F Damp=F
 DIIS: error= 2.72D-02 at cycle   9 NSaved=   9.
 NSaved= 9 IEnMin= 9 EnMin= -191.895541104820     IErMin= 2 ErrMin= 1.49D-02
 ErrMax= 2.72D-02  0.00D+00 EMaxC= 1.00D-01 BMatC= 4.13D-02 BMatP= 3.91D-02
 IDIUse=3 WtCom= 7.28D-01 WtEn= 2.72D-01
 EnCoef did     1 forward-backward iterations
 Coeff-Com: -0.496D-01 0.124D+00 0.255D-01-0.159D-01 0.586D-01-0.218D-01
 Coeff-Com:  0.130D+00 0.300D+00 0.450D+00
 Coeff-En:   0.000D+00 0.000D+00 0.000D+00 0.000D+00 0.000D+00 0.000D+00
 Coeff-En:   0.856D-02 0.323D+00 0.668D+00
 Coeff:     -0.361D-01 0.902D-01 0.185D-01-0.116D-01 0.427D-01-0.159D-01
 Coeff:      0.968D-01 0.306D+00 0.509D+00
 Gap=     0.048 Goal=   None    Shift=    0.000
 RMSDP=3.64D-03 MaxDP=4.95D-02 DE=-1.31D-01 OVMax= 1.28D-01

 Cycle  14  Pass 1  IDiag  1:
 E= -191.919840473314     Delta-E=       -0.024299368494 Rises=F Damp=F
 DIIS: error= 1.53D-02 at cycle  10 NSaved=  10.
 NSaved=10 IEnMin=10 EnMin= -191.919840473314     IErMin= 2 ErrMin= 1.49D-02
 ErrMax= 1.53D-02  0.00D+00 EMaxC= 1.00D-01 BMatC= 2.25D-02 BMatP= 3.91D-02
 IDIUse=3 WtCom= 8.47D-01 WtEn= 1.53D-01
 EnCoef did     3 forward-backward iterations
 Coeff-Com: -0.155D-01 0.731D-01-0.148D-01-0.130D-01 0.141D-01-0.160D-01
 Coeff-Com:  0.427D-01 0.257D+00 0.369D+00 0.303D+00
 Coeff-En:   0.000D+00 0.000D+00 0.000D+00 0.000D+00 0.000D+00 0.000D+00
 Coeff-En:   0.000D+00 0.221D+00 0.407D+00 0.372D+00
 Coeff:     -0.132D-01 0.619D-01-0.125D-01-0.110D-01 0.120D-01-0.135D-01
 Coeff:      0.362D-01 0.251D+00 0.375D+00 0.314D+00
 Gap=     0.043 Goal=   None    Shift=    0.000
 RMSDP=2.17D-03 MaxDP=2.90D-02 DE=-2.43D-02 OVMax= 8.33D-02

 Cycle  15  Pass 1  IDiag  1:
 E= -191.950074148802     Delta-E=       -0.030233675488 Rises=F Damp=F
 DIIS: error= 6.55D-03 at cycle  11 NSaved=  11.
 NSaved=11 IEnMin=11 EnMin= -191.950074148802     IErMin=11 ErrMin= 6.55D-03
 ErrMax= 6.55D-03  0.00D+00 EMaxC= 1.00D-01 BMatC= 3.48D-03 BMatP= 2.25D-02
 IDIUse=3 WtCom= 9.35D-01 WtEn= 6.55D-02
 EnCoef did     1 forward-backward iterations
 Coeff-Com: -0.127D-02 0.602D-01-0.216D-01-0.925D-02-0.114D-02-0.629D-02
 Coeff-Com:  0.792D-02 0.182D+00 0.168D+00 0.230D+00 0.392D+00
 Coeff-En:   0.000D+00 0.000D+00 0.000D+00 0.000D+00 0.000D+00 0.000D+00
 Coeff-En:   0.000D+00 0.424D-01 0.000D+00 0.714D-03 0.957D+00
 Coeff:     -0.119D-02 0.563D-01-0.202D-01-0.864D-02-0.106D-02-0.588D-02
 Coeff:      0.740D-02 0.173D+00 0.157D+00 0.215D+00 0.429D+00
 Gap=     0.046 Goal=   None    Shift=    0.000
 RMSDP=1.29D-03 MaxDP=2.84D-02 DE=-3.02D-02 OVMax= 5.97D-02

 Cycle  16  Pass 1  IDiag  1:
 E= -191.952120663503     Delta-E=       -0.002046514701 Rises=F Damp=F
 DIIS: error= 4.87D-03 at cycle  12 NSaved=  12.
 NSaved=12 IEnMin=12 EnMin= -191.952120663503     IErMin=12 ErrMin= 4.87D-03
 ErrMax= 4.87D-03  0.00D+00 EMaxC= 1.00D-01 BMatC= 1.63D-03 BMatP= 3.48D-03
 IDIUse=3 WtCom= 9.51D-01 WtEn= 4.87D-02
 EnCoef did     2 forward-backward iterations
 Coeff-Com: -0.162D-02 0.208D-01-0.102D-02-0.831D-03-0.147D-02 0.530D-03
 Coeff-Com:  0.335D-02 0.303D-01-0.114D+00-0.180D+00 0.463D+00 0.781D+00
 Coeff-En:   0.000D+00 0.000D+00 0.000D+00 0.000D+00 0.000D+00 0.000D+00
 Coeff-En:   0.000D+00 0.144D-01 0.000D+00 0.000D+00 0.370D+00 0.615D+00
 Coeff:     -0.154D-02 0.198D-01-0.975D-03-0.790D-03-0.140D-02 0.504D-03
 Coeff:      0.319D-02 0.296D-01-0.108D+00-0.172D+00 0.459D+00 0.773D+00
 Gap=     0.043 Goal=   None    Shift=    0.000
 RMSDP=9.90D-04 MaxDP=2.25D-02 DE=-2.05D-03 OVMax= 4.13D-02

 Cycle  17  Pass 1  IDiag  1:
 E= -191.955050857533     Delta-E=       -0.002930194030 Rises=F Damp=F
 DIIS: error= 1.33D-03 at cycle  13 NSaved=  13.
 NSaved=13 IEnMin=13 EnMin= -191.955050857533     IErMin=13 ErrMin= 1.33D-03
 ErrMax= 1.33D-03  0.00D+00 EMaxC= 1.00D-01 BMatC= 1.52D-04 BMatP= 1.63D-03
 IDIUse=3 WtCom= 9.87D-01 WtEn= 1.33D-02
 Coeff-Com:  0.274D-03 0.514D-02-0.289D-04-0.474D-04-0.362D-02-0.115D-03
 Coeff-Com:  0.455D-02-0.440D-02-0.221D-01-0.640D-01 0.128D+00 0.315D+00
 Coeff-Com:  0.642D+00
 Coeff-En:   0.000D+00 0.000D+00 0.000D+00 0.000D+00 0.000D+00 0.000D+00
 Coeff-En:   0.000D+00 0.000D+00 0.000D+00 0.000D+00 0.000D+00 0.149D+00
 Coeff-En:   0.851D+00
 Coeff:      0.271D-03 0.507D-02-0.285D-04-0.467D-04-0.357D-02-0.113D-03
 Coeff:      0.448D-02-0.434D-02-0.218D-01-0.632D-01 0.126D+00 0.313D+00
 Coeff:      0.645D+00
 Gap=     0.045 Goal=   None    Shift=    0.000
 RMSDP=2.72D-04 MaxDP=5.97D-03 DE=-2.93D-03 OVMax= 1.24D-02

 Cycle  18  Pass 1  IDiag  1:
 E= -191.955300953098     Delta-E=       -0.000250095565 Rises=F Damp=F
 DIIS: error= 6.70D-04 at cycle  14 NSaved=  14.
 NSaved=14 IEnMin=14 EnMin= -191.955300953098     IErMin=14 ErrMin= 6.70D-04
 ErrMax= 6.70D-04  0.00D+00 EMaxC= 1.00D-01 BMatC= 2.04D-05 BMatP= 1.52D-04
 IDIUse=3 WtCom= 9.93D-01 WtEn= 6.70D-03
 Coeff-Com: -0.549D-04 0.608D-03-0.412D-03 0.211D-04-0.375D-02-0.773D-04
 Coeff-Com:  0.321D-02-0.731D-02 0.173D-01-0.755D-02-0.172D-01 0.746D-01
 Coeff-Com:  0.526D+00 0.415D+00
 Coeff-En:   0.000D+00 0.000D+00 0.000D+00 0.000D+00 0.000D+00 0.000D+00
 Coeff-En:   0.000D+00 0.000D+00 0.000D+00 0.000D+00 0.000D+00 0.000D+00
 Coeff-En:   0.000D+00 0.100D+01
 Coeff:     -0.545D-04 0.604D-03-0.410D-03 0.210D-04-0.373D-02-0.767D-04
 Coeff:      0.319D-02-0.726D-02 0.172D-01-0.750D-02-0.171D-01 0.741D-01
 Coeff:      0.522D+00 0.419D+00
 Gap=     0.045 Goal=   None    Shift=    0.000
 RMSDP=1.15D-04 MaxDP=3.01D-03 DE=-2.50D-04 OVMax= 6.52D-03

 Cycle  19  Pass 1  IDiag  1:
 E= -191.955353776952     Delta-E=       -0.000052823854 Rises=F Damp=F
 DIIS: error= 1.67D-04 at cycle  15 NSaved=  15.
 NSaved=15 IEnMin=15 EnMin= -191.955353776952     IErMin=15 ErrMin= 1.67D-04
 ErrMax= 1.67D-04  0.00D+00 EMaxC= 1.00D-01 BMatC= 2.42D-06 BMatP= 2.04D-05
 IDIUse=3 WtCom= 9.98D-01 WtEn= 1.67D-03
 Coeff-Com: -0.433D-04-0.146D-03 0.153D-03 0.634D-04-0.182D-02-0.487D-04
 Coeff-Com:  0.129D-02-0.125D-02 0.160D-02-0.327D-02-0.916D-02 0.413D-02
 Coeff-Com: -0.235D-01 0.796D-01 0.952D+00
 Coeff-En:   0.000D+00 0.000D+00 0.000D+00 0.000D+00 0.000D+00 0.000D+00
 Coeff-En:   0.000D+00 0.000D+00 0.000D+00 0.000D+00 0.000D+00 0.000D+00
 Coeff-En:   0.000D+00 0.000D+00 0.100D+01
 Coeff:     -0.432D-04-0.146D-03 0.153D-03 0.633D-04-0.182D-02-0.486D-04
 Coeff:      0.129D-02-0.125D-02 0.160D-02-0.326D-02-0.915D-02 0.412D-02
 Coeff:     -0.235D-01 0.795D-01 0.952D+00
 Gap=     0.045 Goal=   None    Shift=    0.000
 RMSDP=4.68D-05 MaxDP=5.11D-04 DE=-5.28D-05 OVMax= 2.08D-03

 Cycle  20  Pass 1  IDiag  1:
 E= -191.955358354797     Delta-E=       -0.000004577844 Rises=F Damp=F
 DIIS: error= 1.38D-04 at cycle  16 NSaved=  16.
 NSaved=16 IEnMin=16 EnMin= -191.955358354797     IErMin=16 ErrMin= 1.38D-04
 ErrMax= 1.38D-04  0.00D+00 EMaxC= 1.00D-01 BMatC= 9.03D-07 BMatP= 2.42D-06
 IDIUse=3 WtCom= 9.99D-01 WtEn= 1.38D-03
 Coeff-Com: -0.227D-04-0.192D-03 0.139D-03 0.471D-04-0.324D-03 0.485D-05
 Coeff-Com:  0.352D-03 0.121D-02-0.562D-02-0.881D-03 0.144D-03-0.329D-02
 Coeff-Com: -0.121D+00-0.550D-01 0.231D+00 0.954D+00
 Coeff-En:   0.000D+00 0.000D+00 0.000D+00 0.000D+00 0.000D+00 0.000D+00
 Coeff-En:   0.000D+00 0.000D+00 0.000D+00 0.000D+00 0.000D+00 0.000D+00
 Coeff-En:   0.000D+00 0.000D+00 0.000D+00 0.100D+01
 Coeff:     -0.227D-04-0.191D-03 0.139D-03 0.470D-04-0.324D-03 0.484D-05
 Coeff:      0.352D-03 0.121D-02-0.561D-02-0.880D-03 0.143D-03-0.328D-02
 Coeff:     -0.121D+00-0.549D-01 0.230D+00 0.954D+00
 Gap=     0.045 Goal=   None    Shift=    0.000
 RMSDP=3.15D-05 MaxDP=3.22D-04 DE=-4.58D-06 OVMax= 1.50D-03

 Cycle  21  Pass 1  IDiag  1:
 E= -191.955360325423     Delta-E=       -0.000001970626 Rises=F Damp=F
 DIIS: error= 5.02D-05 at cycle  17 NSaved=  17.
 NSaved=17 IEnMin=17 EnMin= -191.955360325423     IErMin=17 ErrMin= 5.02D-05
 ErrMax= 5.02D-05  0.00D+00 EMaxC= 1.00D-01 BMatC= 1.06D-07 BMatP= 9.03D-07
 IDIUse=1 WtCom= 1.00D+00 WtEn= 0.00D+00
 Coeff-Com: -0.588D-05 0.540D-04 0.199D-04-0.679D-05 0.531D-04 0.609D-05
 Coeff-Com: -0.167D-04 0.278D-03-0.138D-02 0.402D-03 0.212D-02 0.637D-03
 Coeff-Com:  0.111D-01-0.151D-01-0.160D+00 0.183D-01 0.114D+01
 Coeff:     -0.588D-05 0.540D-04 0.199D-04-0.679D-05 0.531D-04 0.609D-05
 Coeff:     -0.167D-04 0.278D-03-0.138D-02 0.402D-03 0.212D-02 0.637D-03
 Coeff:      0.111D-01-0.151D-01-0.160D+00 0.183D-01 0.114D+01
 Gap=     0.045 Goal=   None    Shift=    0.000
 RMSDP=1.46D-05 MaxDP=1.45D-04 DE=-1.97D-06 OVMax= 8.59D-04

 Cycle  22  Pass 1  IDiag  1:
 E= -191.955360602131     Delta-E=       -0.000000276708 Rises=F Damp=F
 DIIS: error= 5.33D-06 at cycle  18 NSaved=  18.
 NSaved=18 IEnMin=18 EnMin= -191.955360602131     IErMin=18 ErrMin= 5.33D-06
 ErrMax= 5.33D-06  0.00D+00 EMaxC= 1.00D-01 BMatC= 1.86D-09 BMatP= 1.06D-07
 IDIUse=1 WtCom= 1.00D+00 WtEn= 0.00D+00
 Coeff-Com: -0.316D-05 0.235D-04-0.271D-05-0.422D-05 0.170D-04 0.330D-05
 Coeff-Com: -0.468D-04-0.163D-04 0.257D-03 0.893D-04-0.487D-04 0.619D-03
 Coeff-Com:  0.102D-01 0.239D-02-0.284D-01-0.482D-01 0.795D-01 0.984D+00
 Coeff:     -0.316D-05 0.235D-04-0.271D-05-0.422D-05 0.170D-04 0.330D-05
 Coeff:     -0.468D-04-0.163D-04 0.257D-03 0.893D-04-0.487D-04 0.619D-03
 Coeff:      0.102D-01 0.239D-02-0.284D-01-0.482D-01 0.795D-01 0.984D+00
 Gap=     0.045 Goal=   None    Shift=    0.000
 RMSDP=5.37D-06 MaxDP=4.49D-05 DE=-2.77D-07 OVMax= 3.67D-04

 Cycle  23  Pass 1  IDiag  1:
 E= -191.955360625310     Delta-E=       -0.000000023179 Rises=F Damp=F
 DIIS: error= 4.17D-06 at cycle  19 NSaved=  19.
 NSaved=19 IEnMin=19 EnMin= -191.955360625310     IErMin=19 ErrMin= 4.17D-06
 ErrMax= 4.17D-06  0.00D+00 EMaxC= 1.00D-01 BMatC= 1.41D-09 BMatP= 1.86D-09
 IDIUse=1 WtCom= 1.00D+00 WtEn= 0.00D+00
 Coeff-Com:  0.116D-05 0.130D-04-0.577D-05-0.417D-05 0.222D-04 0.195D-05
 Coeff-Com: -0.355D-04-0.425D-04 0.210D-03-0.149D-03-0.293D-03 0.719D-03
 Coeff-Com: -0.196D-02 0.213D-02 0.145D-01 0.121D-01-0.203D+00 0.110D+00
 Coeff-Com:  0.107D+01
 Coeff:      0.116D-05 0.130D-04-0.577D-05-0.417D-05 0.222D-04 0.195D-05
 Coeff:     -0.355D-04-0.425D-04 0.210D-03-0.149D-03-0.293D-03 0.719D-03
 Coeff:     -0.196D-02 0.213D-02 0.145D-01 0.121D-01-0.203D+00 0.110D+00
 Coeff:      0.107D+01
 Gap=     0.045 Goal=   None    Shift=    0.000
 RMSDP=4.39D-06 MaxDP=3.76D-05 DE=-2.32D-08 OVMax= 3.04D-04

 Cycle  24  Pass 1  IDiag  1:
 E= -191.955360639559     Delta-E=       -0.000000014249 Rises=F Damp=F
 DIIS: error= 4.93D-06 at cycle  20 NSaved=  20.
 NSaved=20 IEnMin=20 EnMin= -191.955360639559     IErMin=19 ErrMin= 4.17D-06
 ErrMax= 4.93D-06  0.00D+00 EMaxC= 1.00D-01 BMatC= 1.08D-09 BMatP= 1.41D-09
 IDIUse=1 WtCom= 1.00D+00 WtEn= 0.00D+00
 Coeff-Com: -0.197D-05-0.227D-05-0.604D-06-0.375D-06 0.145D-04 0.816D-06
 Coeff-Com: -0.167D-04-0.537D-05 0.212D-04-0.651D-04-0.510D-04 0.222D-04
 Coeff-Com: -0.355D-02-0.105D-02 0.903D-02 0.338D-01-0.652D-01-0.302D+00
 Coeff-Com: -0.211D+00 0.154D+01
 Coeff:     -0.197D-05-0.227D-05-0.604D-06-0.375D-06 0.145D-04 0.816D-06
 Coeff:     -0.167D-04-0.537D-05 0.212D-04-0.651D-04-0.510D-04 0.222D-04
 Coeff:     -0.355D-02-0.105D-02 0.903D-02 0.338D-01-0.652D-01-0.302D+00
 Coeff:     -0.211D+00 0.154D+01
 Gap=     0.045 Goal=   None    Shift=    0.000
 RMSDP=5.24D-06 MaxDP=4.38D-05 DE=-1.42D-08 OVMax= 3.64D-04

 Cycle  25  Pass 1  IDiag  1:
 E= -191.955360649634     Delta-E=       -0.000000010075 Rises=F Damp=F
 DIIS: error= 3.92D-06 at cycle  21 NSaved=  20.
 NSaved=20 IEnMin=20 EnMin= -191.955360649634     IErMin=20 ErrMin= 3.92D-06
 ErrMax= 3.92D-06  0.00D+00 EMaxC= 1.00D-01 BMatC= 5.45D-10 BMatP= 1.08D-09
 IDIUse=1 WtCom= 1.00D+00 WtEn= 0.00D+00
 Coeff-Com: -0.288D-05 0.301D-08 0.163D-05 0.878D-05 0.695D-06-0.159D-04
 Coeff-Com: -0.206D-05-0.281D-04 0.327D-04 0.176D-03-0.107D-03 0.101D-02
 Coeff-Com: -0.346D-03-0.889D-02 0.402D-02 0.654D-01-0.313D-01-0.516D+00
 Coeff-Com:  0.238D+00 0.125D+01
 Coeff:     -0.288D-05 0.301D-08 0.163D-05 0.878D-05 0.695D-06-0.159D-04
 Coeff:     -0.206D-05-0.281D-04 0.327D-04 0.176D-03-0.107D-03 0.101D-02
 Coeff:     -0.346D-03-0.889D-02 0.402D-02 0.654D-01-0.313D-01-0.516D+00
 Coeff:      0.238D+00 0.125D+01
 Gap=     0.045 Goal=   None    Shift=    0.000
 RMSDP=3.33D-06 MaxDP=2.84D-05 DE=-1.01D-08 OVMax= 2.31D-04

 Cycle  26  Pass 1  IDiag  1:
 E= -191.955360652628     Delta-E=       -0.000000002994 Rises=F Damp=F
 DIIS: error= 2.24D-06 at cycle  22 NSaved=  20.
 NSaved=20 IEnMin=20 EnMin= -191.955360652628     IErMin=20 ErrMin= 2.24D-06
 ErrMax= 2.24D-06  0.00D+00 EMaxC= 1.00D-01 BMatC= 2.28D-10 BMatP= 5.45D-10
 IDIUse=1 WtCom= 1.00D+00 WtEn= 0.00D+00
 Coeff-Com: -0.119D-05 0.160D-05 0.359D-06 0.585D-05-0.713D-05-0.478D-05
 Coeff-Com:  0.149D-05 0.606D-04 0.822D-04-0.848D-04 0.893D-03-0.508D-03
 Coeff-Com: -0.479D-02-0.433D-02 0.343D-01 0.721D-01-0.518D-01-0.375D+00
 Coeff-Com:  0.243D+00 0.109D+01
 Coeff:     -0.119D-05 0.160D-05 0.359D-06 0.585D-05-0.713D-05-0.478D-05
 Coeff:      0.149D-05 0.606D-04 0.822D-04-0.848D-04 0.893D-03-0.508D-03
 Coeff:     -0.479D-02-0.433D-02 0.343D-01 0.721D-01-0.518D-01-0.375D+00
 Coeff:      0.243D+00 0.109D+01
 Gap=     0.045 Goal=   None    Shift=    0.000
 RMSDP=1.33D-06 MaxDP=1.12D-05 DE=-2.99D-09 OVMax= 9.10D-05

 Cycle  27  Pass 1  IDiag  1:
 E= -191.955360653120     Delta-E=       -0.000000000492 Rises=F Damp=F
 DIIS: error= 1.22D-06 at cycle  23 NSaved=  20.
 NSaved=20 IEnMin=20 EnMin= -191.955360653120     IErMin=20 ErrMin= 1.22D-06
 ErrMax= 1.22D-06  0.00D+00 EMaxC= 1.00D-01 BMatC= 8.68D-11 BMatP= 2.28D-10
 IDIUse=1 WtCom= 1.00D+00 WtEn= 0.00D+00
 Coeff-Com: -0.573D-06 0.175D-06 0.259D-05-0.417D-05-0.365D-05 0.303D-05
 Coeff-Com:  0.156D-04 0.127D-04 0.150D-04-0.665D-03-0.556D-03 0.256D-02
 Coeff-Com:  0.287D-02-0.117D-01-0.196D-01 0.100D+00-0.274D-01-0.177D+00
 Coeff-Com: -0.192D-01 0.115D+01
 Coeff:     -0.573D-06 0.175D-06 0.259D-05-0.417D-05-0.365D-05 0.303D-05
 Coeff:      0.156D-04 0.127D-04 0.150D-04-0.665D-03-0.556D-03 0.256D-02
 Coeff:      0.287D-02-0.117D-01-0.196D-01 0.100D+00-0.274D-01-0.177D+00
 Coeff:     -0.192D-01 0.115D+01
 Gap=     0.045 Goal=   None    Shift=    0.000
 RMSDP=2.39D-07 MaxDP=2.62D-06 DE=-4.92D-10 OVMax= 1.44D-05

 Cycle  28  Pass 1  IDiag  1:
 E= -191.955360653246     Delta-E=       -0.000000000125 Rises=F Damp=F
 DIIS: error= 1.90D-07 at cycle  24 NSaved=  20.
 NSaved=20 IEnMin=20 EnMin= -191.955360653246     IErMin=20 ErrMin= 1.90D-07
 ErrMax= 1.90D-07  0.00D+00 EMaxC= 1.00D-01 BMatC= 2.17D-12 BMatP= 8.68D-11
 IDIUse=1 WtCom= 1.00D+00 WtEn= 0.00D+00
 Coeff-Com: -0.619D-07-0.157D-06-0.517D-07 0.213D-06-0.174D-05-0.658D-05
 Coeff-Com:  0.121D-04 0.215D-04-0.171D-03-0.650D-04 0.708D-03 0.568D-03
 Coeff-Com: -0.504D-02-0.120D-01 0.147D-01 0.439D-01-0.350D-01-0.113D+00
 Coeff-Com: -0.858D-02 0.111D+01
 Coeff:     -0.619D-07-0.157D-06-0.517D-07 0.213D-06-0.174D-05-0.658D-05
 Coeff:      0.121D-04 0.215D-04-0.171D-03-0.650D-04 0.708D-03 0.568D-03
 Coeff:     -0.504D-02-0.120D-01 0.147D-01 0.439D-01-0.350D-01-0.113D+00
 Coeff:     -0.858D-02 0.111D+01
 Gap=     0.045 Goal=   None    Shift=    0.000
 RMSDP=4.64D-08 MaxDP=5.87D-07 DE=-1.25D-10 OVMax= 2.10D-06

 Cycle  29  Pass 1  IDiag  1:
 E= -191.955360653253     Delta-E=       -0.000000000008 Rises=F Damp=F
 DIIS: error= 3.18D-08 at cycle  25 NSaved=  20.
 NSaved=20 IEnMin=20 EnMin= -191.955360653253     IErMin=20 ErrMin= 3.18D-08
 ErrMax= 3.18D-08  0.00D+00 EMaxC= 1.00D-01 BMatC= 6.89D-14 BMatP= 2.17D-12
 IDIUse=1 WtCom= 1.00D+00 WtEn= 0.00D+00
 Coeff-Com: -0.231D-06 0.214D-06 0.846D-07-0.161D-07-0.543D-06-0.100D-06
 Coeff-Com: -0.391D-05 0.326D-04 0.795D-05-0.142D-03-0.226D-03 0.516D-03
 Coeff-Com:  0.112D-02-0.579D-02 0.149D-02 0.134D-01 0.270D-02-0.639D-01
 Coeff-Com:  0.496D-01 0.100D+01
 Coeff:     -0.231D-06 0.214D-06 0.846D-07-0.161D-07-0.543D-06-0.100D-06
 Coeff:     -0.391D-05 0.326D-04 0.795D-05-0.142D-03-0.226D-03 0.516D-03
 Coeff:      0.112D-02-0.579D-02 0.149D-02 0.134D-01 0.270D-02-0.639D-01
 Coeff:      0.496D-01 0.100D+01
 Gap=     0.045 Goal=   None    Shift=    0.000
 RMSDP=1.62D-08 MaxDP=1.90D-07 DE=-7.84D-12 OVMax= 8.74D-07

 Cycle  30  Pass 1  IDiag  1:
 E= -191.955360653255     Delta-E=       -0.000000000001 Rises=F Damp=F
 DIIS: error= 1.24D-08 at cycle  26 NSaved=  20.
 NSaved=20 IEnMin=20 EnMin= -191.955360653255     IErMin=20 ErrMin= 1.24D-08
 ErrMax= 1.24D-08  0.00D+00 EMaxC= 1.00D-01 BMatC= 1.27D-14 BMatP= 6.89D-14
 IDIUse=1 WtCom= 1.00D+00 WtEn= 0.00D+00
 Large coefficients: NSaved= 20 BigCof=    0.00 CofMax=   10.00 Det=-4.78D-15
 Inversion failed.  Reducing to 19 matrices.
 Large coefficients: NSaved= 19 BigCof=    0.00 CofMax=   10.00 Det=-4.98D-15
 Inversion failed.  Reducing to 18 matrices.
 Large coefficients: NSaved= 18 BigCof=    0.00 CofMax=   10.00 Det=-4.99D-15
 Inversion failed.  Reducing to 17 matrices.
 Large coefficients: NSaved= 17 BigCof=    0.00 CofMax=   10.00 Det=-4.99D-15
 Inversion failed.  Reducing to 16 matrices.
 Large coefficients: NSaved= 16 BigCof=    0.00 CofMax=   10.00 Det=-5.05D-15
 Inversion failed.  Reducing to 15 matrices.
 Coeff-Com:  0.204D-05-0.157D-04-0.249D-05 0.932D-04 0.472D-04-0.448D-03
 Coeff-Com:  0.199D-03 0.197D-02-0.206D-02-0.647D-03-0.564D-02 0.282D-01
 Coeff-Com: -0.969D-01-0.211D+00 0.129D+01
 Coeff:      0.204D-05-0.157D-04-0.249D-05 0.932D-04 0.472D-04-0.448D-03
 Coeff:      0.199D-03 0.197D-02-0.206D-02-0.647D-03-0.564D-02 0.282D-01
 Coeff:     -0.969D-01-0.211D+00 0.129D+01
 Gap=     0.045 Goal=   None    Shift=    0.000
 RMSDP=9.31D-09 MaxDP=1.14D-07 DE=-1.19D-12 OVMax= 5.30D-07

 SCF Done:  E(RB3LYP) =  -191.955360653     A.U. after   30 cycles
            NFock= 30  Conv=0.93D-08     -V/T= 2.0126
 KE= 1.895574904372D+02 PE=-6.379540447936D+02 EE= 1.607484819444D+02
 Leave Link  502 at Thu Mar 19 17:39:03 2026, MaxMem=   536870912 cpu:        11.0
 (Enter C:\G09W\l601.exe)
 Copying SCF densities to generalized density rwf, IOpCl= 0 IROHF=0.

 **********************************************************************

            Population analysis using the SCF density.

 **********************************************************************

 Orbital symmetries:
       Occupied  (A) (A) (A) (A) (A) (A) (A) (A) (A) (A) (A) (A)
                 (A) (A) (A) (A)
       Virtual   (A) (A) (A) (A) (A) (A) (A) (A) (A) (A) (A) (A)
                 (A) (A) (A) (A) (A) (A) (A) (A) (A) (A) (A) (A)
                 (A) (A) (A) (A) (A) (A) (A) (A) (A) (A) (A) (A)
                 (A) (A) (A) (A) (A) (A) (A) (A) (A) (A) (A) (A)
                 (A) (A) (A) (A) (A) (A) (A) (A)
 The electronic state is 1-A.
 Alpha  occ. eigenvalues --  -19.26512 -10.36351 -10.35986 -10.35049  -1.02625
 Alpha  occ. eigenvalues --   -0.64454  -0.62567  -0.58155  -0.49004  -0.43821
 Alpha  occ. eigenvalues --   -0.42894  -0.29716  -0.28724  -0.27084  -0.24713
 Alpha  occ. eigenvalues --   -0.23336
 Alpha virt. eigenvalues --   -0.18863  -0.16152  -0.15408  -0.13119  -0.11671
 Alpha virt. eigenvalues --   -0.10317   0.01055   0.01638   0.02841   0.07368
 Alpha virt. eigenvalues --    0.46856   0.50050   0.51112   0.52486   0.53200
 Alpha virt. eigenvalues --    0.55062   0.56298   0.57744   0.59253   0.68873
 Alpha virt. eigenvalues --    0.71368   0.75273   0.77430   0.80167   0.83421
 Alpha virt. eigenvalues --    0.84654   0.86567   0.94374   1.00183   1.05216
 Alpha virt. eigenvalues --    1.18869   1.23908   1.45684   1.58170   1.62662
 Alpha virt. eigenvalues --    1.63807   1.64391   1.64941   1.65252   1.67344
 Alpha virt. eigenvalues --    1.67819   1.68609   1.70079   1.72813   1.73995
 Alpha virt. eigenvalues --    1.78731   1.79530   1.85351   1.87987   2.01411
 Alpha virt. eigenvalues --    2.21418   2.26401   3.62400   3.83624   3.85718
 Alpha virt. eigenvalues --    3.91597
          Condensed to atoms (all electrons):
               1          2          3          4          5          6
     1  C    5.789256   0.027683  -0.001692  -0.052347   0.001304   0.044649
     2  C    0.027683   5.799509   0.000493   0.016511  -0.001370  -0.000151
     3  C   -0.001692   0.000493   5.840086  -0.034787  -0.003097   0.018578
     4  O   -0.052347   0.016511  -0.034787   8.890281  -0.025949  -0.026628
     5  H    0.001304  -0.001370  -0.003097  -0.025949   0.879165  -0.000016
     6  H    0.044649  -0.000151   0.018578  -0.026628  -0.000016   0.992460
     7  H    0.158535  -0.000343   0.008626  -0.032243   0.000557   0.029601
     8  H    0.000958   0.064424   0.097274  -0.054245   0.002547   0.057194
     9  H    0.098456   0.100697   0.011731  -0.075414   0.002641   0.000526
    10  H    0.003202   0.005206   0.067298  -0.048718   0.171512   0.000478
               7          8          9         10
     1  C    0.158535   0.000958   0.098456   0.003202
     2  C   -0.000343   0.064424   0.100697   0.005206
     3  C    0.008626   0.097274   0.011731   0.067298
     4  O   -0.032243  -0.054245  -0.075414  -0.048718
     5  H    0.000557   0.002547   0.002641   0.171512
     6  H    0.029601   0.057194   0.000526   0.000478
     7  H    0.621027  -0.008714  -0.003563   0.008643
     8  H   -0.008714   0.620375  -0.001686  -0.002729
     9  H   -0.003563  -0.001686   0.700095   0.001167
    10  H    0.008643  -0.002729   0.001167   0.614156
 Mulliken charges:
               1
     1  C   -0.070004
     2  C   -0.012659
     3  C   -0.004508
     4  O   -0.556459
     5  H   -0.027294
     6  H   -0.116691
     7  H    0.217874
     8  H    0.224603
     9  H    0.165352
    10  H    0.179786
 Sum of Mulliken charges =   0.00000
 Mulliken charges with hydrogens summed into heavy atoms:
               1
     1  C   -0.070004
     2  C   -0.012659
     3  C   -0.004508
     4  O    0.087171
 Electronic spatial extent (au):  <R**2>=            402.5865
 Charge=              0.0000 electrons
 Dipole moment (field-independent basis, Debye):
    X=              0.3615    Y=             -0.2372    Z=             -0.8222  Tot=              0.9290
 Quadrupole moment (field-independent basis, Debye-Ang):
   XX=            -31.2707   YY=            -29.1649   ZZ=            -33.5259
   XY=              1.3908   XZ=              0.9981   YZ=             -0.8144
 Traceless Quadrupole moment (field-independent basis, Debye-Ang):
   XX=              0.0498   YY=              2.1556   ZZ=             -2.2054
   XY=              1.3908   XZ=              0.9981   YZ=             -0.8144
 Octapole moment (field-independent basis, Debye-Ang**2):
  XXX=             -1.9134  YYY=             -0.4631  ZZZ=             -9.7237  XYY=             -0.9961
  XXY=             -1.2235  XXZ=             -0.3558  XZZ=              1.9895  YZZ=             -1.2040
  YYZ=             -1.8651  XYZ=             -1.1723
 Hexadecapole moment (field-independent basis, Debye-Ang**3):
 XXXX=           -351.9940 YYYY=           -166.3468 ZZZZ=           -172.3997 XXXY=             17.3860
 XXXZ=              7.5029 YYYX=              1.7927 YYYZ=             -4.8968 ZZZX=              7.0282
 ZZZY=              0.8318 XXYY=            -86.6962 XXZZ=            -86.3096 YYZZ=            -56.4792
 XXYZ=             -2.1517 YYXZ=              1.5219 ZZXY=             -0.4749
 N-N= 9.569271175883D+01 E-N=-6.379540443655D+02  KE= 1.895574904372D+02
 No NMR shielding tensors so no spin-rotation constants.
 Leave Link  601 at Thu Mar 19 17:39:03 2026, MaxMem=   536870912 cpu:         0.0
 (Enter C:\G09W\l701.exe)
 Compute integral first derivatives.
 ... and contract with generalized density number  0.
 Leave Link  701 at Thu Mar 19 17:39:04 2026, MaxMem=   536870912 cpu:         0.0
 (Enter C:\G09W\l702.exe)
 L702 exits ... SP integral derivatives will be done elsewhere.
 Leave Link  702 at Thu Mar 19 17:39:05 2026, MaxMem=   536870912 cpu:         0.0
 (Enter C:\G09W\l703.exe)
 Compute integral first derivatives, UseDBF=F ICtDFT=           0.
 Integral derivatives from FoFJK, PRISM(SPDF).
 Calling FoFJK, ICntrl=      2127 FMM=F ISym2X=0 I1Cent= 0 IOpClX= 0 NMat=1 NMatS=1 NMatT=0.
 FoFJK:  IHMeth= 1 ICntrl=    2127 DoSepK=F KAlg= 0 I1Cent=   0 FoldK=F
 IRaf=         0 NMat=   1 IRICut=       1 DoRegI=T DoRafI=F ISym2E= 0.
 FoFCou: FMM=F IPFlag=           0 FMFlag=      100000 FMFlg1=         800
         NFxFlg=           0 DoJE=F BraDBF=F KetDBF=F FulRan=T
         wScrn=  0.000000 ICntrl=    2127 IOpCl=  0 I1Cent=           0 NGrid=           0
         NMat0=    1 NMatS0=      1 NMatT0=    0 NMatD0=    1 NMtDS0=    0 NMtDT0=    0
 Symmetry not used in FoFCou.
 Leave Link  703 at Thu Mar 19 17:39:06 2026, MaxMem=   536870912 cpu:         1.0
 (Enter C:\G09W\l716.exe)
 Dipole        = 1.42213652D-01-9.33309981D-02-3.23482688D-01
 ***** Axes restored to original set *****
 -------------------------------------------------------------------
 Center     Atomic                   Forces (Hartrees/Bohr)
 Number     Number              X              Y              Z
 -------------------------------------------------------------------
      1        6           0.060562569   -0.002415134   -0.037678475
      2        6          -0.047524410    0.056407985   -0.034219909
      3        6          -0.037931561   -0.011110149    0.044673098
      4        8           0.031035327    0.013684457   -0.003208323
      5        1           0.005017505   -0.035576645   -0.016981467
      6        1           0.005235144    0.015956484    0.017418990
      7        1          -0.031001717   -0.022932223    0.040671964
      8        1           0.027423869   -0.010427020   -0.025205293
      9        1          -0.008317934   -0.029294904    0.011445149
     10        1          -0.004498791    0.025707149    0.003084266
 -------------------------------------------------------------------
 Cartesian Forces:  Max     0.060562569 RMS     0.028852725
 Leave Link  716 at Thu Mar 19 17:39:07 2026, MaxMem=   536870912 cpu:         0.0
 (Enter C:\G09W\l103.exe)

 GradGradGradGradGradGradGradGradGradGradGradGradGradGradGradGradGradGrad
 Berny optimization.
 FormGI is forming the generalized inverse of G from B-inverse, IUseBI=4.
 Internal  Forces:  Max     0.046786506 RMS     0.014318826
 Search for a local minimum.
 Step number   1 out of a maximum of   81
 All quantities printed in internal units (Hartrees-Bohrs-Radians)
 RMS Force = .14319D-01 SwitMx=.10000D-02 MixMth= 1
 Mixed Optimization -- RFO/linear search
 Second derivative matrix not updated -- first step.
 ITU=  0
     Eigenvalues ---    0.00449   0.00785   0.01389   0.02783   0.03085
     Eigenvalues ---    0.03097   0.04514   0.04723   0.04872   0.06482
     Eigenvalues ---    0.06817   0.07038   0.08102   0.08309   0.08749
     Eigenvalues ---    0.09213   0.09412   0.10379   0.10701   0.12376
     Eigenvalues ---    0.12564   0.13313   0.14971   0.16082
 RFO step:  Lambda=-8.96356882D-02 EMin= 4.49164827D-03
 Linear search not attempted -- first point.
 Maximum step size (   0.300) exceeded in Quadratic search.
    -- Step size scaled by   0.450
 Iteration  1 RMS(Cart)=  0.04426288 RMS(Int)=  0.00125700
 Iteration  2 RMS(Cart)=  0.00105483 RMS(Int)=  0.00039090
 Iteration  3 RMS(Cart)=  0.00000138 RMS(Int)=  0.00039089
 Iteration  4 RMS(Cart)=  0.00000000 RMS(Int)=  0.00039089
 ITry= 1 IFail=0 DXMaxC= 1.75D-01 DCOld= 1.00D+10 DXMaxT= 3.00D-01 DXLimC= 3.00D+00 Rises=F
 Variable       Old X    -DE/DX   Delta X   Delta X   Delta X     New X
                                 (Linear)    (Quad)   (Total)
    R1        3.08278  -0.04679   0.00000  -0.11843  -0.11827   2.96451
    R2        3.37631  -0.02541   0.00000  -0.07255  -0.07235   3.30396
    R3        3.10172  -0.03023   0.00000  -0.07243  -0.07228   3.02944
    R4        3.20111  -0.04411   0.00000  -0.12284  -0.12234   3.07877
    R5        3.13220  -0.04645   0.00000  -0.11340  -0.11321   3.01899
    R6        3.20534  -0.01189   0.00000  -0.03575  -0.03543   3.16991
    R7        2.74368  -0.00277   0.00000  -0.00709  -0.00735   2.73633
    R8        2.74635  -0.01213   0.00000  -0.02528  -0.02585   2.72050
    R9        2.85755   0.00358   0.00000   0.00274   0.00216   2.85971
   R10        2.68722  -0.00752   0.00000  -0.02134  -0.02164   2.66558
   R11        3.13013  -0.03961   0.00000  -0.13219  -0.13219   2.99794
   R12        3.58659  -0.01883   0.00000  -0.07030  -0.07030   3.51628
    A1        1.42711   0.01486   0.00000   0.03272   0.03311   1.46022
    A2        1.50400   0.01664   0.00000   0.04004   0.04077   1.54477
    A3        1.51095   0.01298   0.00000   0.03053   0.03089   1.54184
    A4        1.64079  -0.01203   0.00000  -0.03175  -0.03192   1.60887
    A5        1.71342  -0.00593   0.00000  -0.02194  -0.02238   1.69104
    A6        2.15045   0.00646   0.00000   0.01652   0.01646   2.16690
    A7        1.75237  -0.00349   0.00000  -0.01386  -0.01422   1.73814
    A8        1.85371   0.00366   0.00000   0.00378   0.00384   1.85755
    A9        2.23051   0.00485   0.00000   0.02572   0.02572   2.25623
   A10        1.62238  -0.00079   0.00000   0.00107   0.00085   1.62323
   A11        2.14846   0.00325   0.00000   0.00670   0.00625   2.15471
   A12        1.42146  -0.00733   0.00000  -0.02291  -0.02300   1.39846
   A13        2.29284  -0.00551   0.00000  -0.01244  -0.01423   2.27862
   A14        1.40737  -0.00126   0.00000  -0.00101  -0.00126   1.40611
   A15        1.84150   0.00286   0.00000   0.00770   0.00741   1.84892
   A16        1.91878  -0.00853   0.00000  -0.03423  -0.03434   1.88444
   A17        1.95978  -0.02035   0.00000  -0.04858  -0.04836   1.91142
   A18        1.48458  -0.00990   0.00000  -0.01803  -0.01812   1.46646
   A19        1.36244  -0.00710   0.00000  -0.01466  -0.01526   1.34718
   A20        1.39922  -0.01341   0.00000  -0.02660  -0.02684   1.37238
   A21        2.84599   0.00187   0.00000   0.00436   0.00437   2.85036
   A22        1.89750   0.01235   0.00000   0.02415   0.02435   1.92185
    D1        0.17880   0.00542   0.00000   0.01806   0.01854   0.19734
    D2       -1.47999   0.00321   0.00000  -0.00253  -0.00310  -1.48309
    D3       -0.17202  -0.00497   0.00000  -0.01701  -0.01748  -0.18950
    D4        1.73008  -0.00300   0.00000  -0.00047  -0.00031   1.72977
    D5        0.45817   0.00506   0.00000   0.01987   0.02070   0.47887
    D6       -1.44575   0.02375   0.00000   0.08773   0.08747  -1.35828
    D7        0.94389  -0.01078   0.00000  -0.02690  -0.02706   0.91683
    D8       -0.44412  -0.00238   0.00000  -0.01417  -0.01469  -0.45881
    D9       -0.98149   0.00939   0.00000   0.02487   0.02523  -0.95625
   D10        0.29772  -0.00188   0.00000  -0.00695  -0.00698   0.29074
   D11        2.18677  -0.01129   0.00000  -0.04346  -0.04372   2.14304
   D12       -0.30491   0.00177   0.00000   0.00612   0.00610  -0.29881
   D13       -2.45688   0.00052   0.00000   0.00380   0.00387  -2.45302
   D14        1.55328  -0.01090   0.00000  -0.03834  -0.03787   1.51541
   D15       -0.21168  -0.00483   0.00000  -0.01699  -0.01708  -0.22876
   D16       -2.76892  -0.01298   0.00000  -0.05133  -0.05134  -2.82026
   D17       -2.25586   0.01127   0.00000   0.02943   0.02954  -2.22631
   D18        1.83230   0.00517   0.00000   0.01490   0.01504   1.84734
   D19        0.03097   0.00182   0.00000   0.00413   0.00455   0.03553
   D20       -0.52666   0.00250   0.00000  -0.00063  -0.00033  -0.52699
   D21       -2.72169  -0.00361   0.00000  -0.01517  -0.01483  -2.73652
   D22        1.76017  -0.00696   0.00000  -0.02594  -0.02532   1.73485
   D23        1.82276   0.00813   0.00000   0.02348   0.02358   1.84634
   D24       -0.37227   0.00203   0.00000   0.00895   0.00908  -0.36319
   D25       -2.17359  -0.00133   0.00000  -0.00182  -0.00141  -2.17500
   D26        0.19350   0.00308   0.00000   0.01247   0.01225   0.20575
   D27        2.18385  -0.01406   0.00000  -0.03038  -0.03013   2.15372
   D28       -1.47565   0.01722   0.00000   0.05177   0.05127  -1.42438
   D29        0.51469   0.00008   0.00000   0.00892   0.00890   0.52359
   D30        2.71130   0.01228   0.00000   0.04325   0.04308   2.75438
   D31       -1.58154  -0.00486   0.00000   0.00040   0.00070  -1.58084
   D32       -1.48795   0.00417   0.00000   0.01344   0.01392  -1.47403
   D33        1.39363   0.00490   0.00000   0.01548   0.01587   1.40950
   D34        0.36390  -0.00541   0.00000  -0.01658  -0.01651   0.34739
   D35       -3.03770  -0.00467   0.00000  -0.01454  -0.01456  -3.05226
   D36        2.41661  -0.00320   0.00000  -0.01410  -0.01428   2.40232
   D37       -0.98499  -0.00246   0.00000  -0.01206  -0.01234  -0.99733
         Item               Value     Threshold  Converged?
 Maximum Force            0.046787     0.000450     NO 
 RMS     Force            0.014319     0.000300     NO 
 Maximum Displacement     0.174648     0.001800     NO 
 RMS     Displacement     0.044051     0.001200     NO 
 Predicted change in Energy=-3.643087D-02
 Lowest energy point so far.  Saving SCF results.
 GradGradGradGradGradGradGradGradGradGradGradGradGradGradGradGradGradGrad

 Leave Link  103 at Thu Mar 19 17:39:07 2026, MaxMem=   536870912 cpu:         0.0
 (Enter C:\G09W\l202.exe)
                          Input orientation:                          
 ---------------------------------------------------------------------
 Center     Atomic      Atomic             Coordinates (Angstroms)
 Number     Number       Type             X           Y           Z
 ---------------------------------------------------------------------
      1          6           0       -1.971316   -0.202218    0.615626
      2          6           0        0.500354   -1.259342    1.238310
      3          6           0        1.365297   -0.283857   -1.260963
      4          8           0        0.101462    0.307411    0.126055
      5          1           0        1.191269    2.497924    0.370061
      6          1           0       -1.118859   -1.483558   -1.452248
      7          1           0       -1.160451    0.418276   -0.575367
      8          1           0        0.303622   -1.040447   -0.337553
      9          1           0       -0.476311    0.019222    1.494698
     10          1           0        1.264933    1.026591   -0.218620
 ---------------------------------------------------------------------
                    Distance matrix (angstroms):
                    1          2          3          4          5
     1  C    0.000000
     2  C    2.759420   0.000000
     3  C    3.828999   2.818876   0.000000
     4  O    2.189934   1.962381   1.967408   0.000000
     5  H    4.165694   3.917686   3.229370   2.458773   0.000000
     6  H    2.577716   3.148210   2.765303   2.681006   4.950727
     7  H    1.568750   2.976928   2.709693   1.448001   3.278621
     8  H    2.605095   1.603111   1.597582   1.439625   3.716006
     9  H    1.748383   1.629213   3.328219   1.513294   3.192114
    10  H    3.560792   2.816507   1.677446   1.410562   1.586440
                    6          7          8          9         10
     6  H    0.000000
     7  H    2.094665   0.000000
     8  H    1.860737   2.080369   0.000000
     9  H    3.369824   2.216407   2.255734   0.000000
    10  H    3.674935   2.525827   2.282742   2.642381   0.000000
 Stoichiometry    C3H6O
 Framework group  C1[X(C3H6O)]
 Deg. of freedom    24
 Full point group                 C1      NOp   1
 RotChk:  IX=2 Diff= 7.73D-02
 Largest Abelian subgroup         C1      NOp   1
 Largest concise Abelian subgroup C1      NOp   1
                         Standard orientation:                         
 ---------------------------------------------------------------------
 Center     Atomic      Atomic             Coordinates (Angstroms)
 Number     Number       Type             X           Y           Z
 ---------------------------------------------------------------------
      1          6           0       -1.958855   -0.509557    0.239172
      2          6           0       -0.223546    1.577843   -0.256676
      3          6           0        1.833436   -0.139917    0.617501
      4          8           0        0.140431   -0.347557   -0.362964
      5          1           0        1.229377   -1.452134   -2.270756
      6          1           0       -0.380793   -0.298442    2.266429
      7          1           0       -0.612948   -1.290951    0.436497
      8          1           0        0.380380    0.506052    0.771187
      9          1           0       -1.048132    0.366652   -0.969003
     10          1           0        1.402456   -0.620934   -0.930628
 ---------------------------------------------------------------------
 Rotational constants (GHZ):      8.3446611      4.4582372      3.8031040
 Leave Link  202 at Thu Mar 19 17:39:07 2026, MaxMem=   536870912 cpu:         0.0
 (Enter C:\G09W\l301.exe)
 Standard basis: 6-31G(d) (6D, 7F)
 Ernie: Thresh=  0.10000D-02 Tol=  0.10000D-05 Strict=F.
 There are    72 symmetry adapted cartesian basis functions of A   symmetry.
 There are    72 symmetry adapted basis functions of A   symmetry.
    72 basis functions,   136 primitive gaussians,    72 cartesian basis functions
    16 alpha electrons       16 beta electrons
       nuclear repulsion energy        98.1953528388 Hartrees.
 IExCor=  402 DFT=T Ex+Corr=B3LYP ExCW=0 ScaHFX=  0.200000
 ScaDFX=  0.800000  0.720000  1.000000  0.810000 ScalE2=  1.000000  1.000000
 IRadAn=      0 IRanWt=     -1 IRanGd=            0 ICorTp=0 IEmpDi=  4
 NAtoms=   10 NActive=   10 NUniq=   10 SFac= 1.00D+00 NAtFMM=   60 NAOKFM=F Big=F
 Integral buffers will be    131072 words long.
 Raffenetti 2 integral format.
 Two-electron integral symmetry is turned on.
 Leave Link  301 at Thu Mar 19 17:39:08 2026, MaxMem=   536870912 cpu:         0.0
 (Enter C:\G09W\l302.exe)
 NPDir=0 NMtPBC=     1 NCelOv=     1 NCel=       1 NClECP=     1 NCelD=      1
         NCelK=      1 NCelE2=     1 NClLst=     1 CellRange=     0.0.
 One-electron integrals computed using PRISM.
 NBasis=    72 RedAO= T EigKep=  2.23D-02  NBF=    72
 NBsUse=    72 1.00D-06 EigRej= -1.00D+00 NBFU=    72
 Precomputing XC quadrature grid using
 IXCGrd= 4 IRadAn=           0 IRanWt=          -1 IRanGd=           0 AccXCQ= 0.00D+00.
 Generated NRdTot=       0 NPtTot=           0 NUsed=           0 NTot=          32
 NSgBfM=    72    72    72    72    72 MxSgAt=    10 MxSgA2=    10.
 Leave Link  302 at Thu Mar 19 17:39:09 2026, MaxMem=   536870912 cpu:         0.0
 (Enter C:\G09W\l303.exe)
 DipDrv:  MaxL=1.
 Leave Link  303 at Thu Mar 19 17:39:10 2026, MaxMem=   536870912 cpu:         0.0
 (Enter C:\G09W\l401.exe)
 Initial guess from the checkpoint file:  "acetone_xtb.chk"
 B after Tr=     0.000000    0.000000    0.000000
         Rot=    0.999778   -0.010987    0.011409   -0.013877 Ang=  -2.41 deg.
 Guess basis will be translated and rotated to current coordinates.
 JPrj=2 DoOrth=T DoCkMO=T.
 Generating alternative initial guess.
 ExpMin= 1.61D-01 ExpMax= 5.48D+03 ExpMxC= 8.25D+02 IAcc=1 IRadAn=         1 AccDes= 0.00D+00
 Harris functional with IExCor=  402 and IRadAn=       1 diagonalized for initial guess.
 HarFok:  IExCor=  402 AccDes= 0.00D+00 IRadAn=         1 IDoV= 1 UseB2=F ITyADJ=14
 ICtDFT=  3500011 ScaDFX=  1.000000  1.000000  1.000000  1.000000
 FoFCou: FMM=F IPFlag=           0 FMFlag=      100000 FMFlg1=           0
         NFxFlg=           0 DoJE=T BraDBF=F KetDBF=T FulRan=T
         wScrn=  0.000000 ICntrl=     500 IOpCl=  0 I1Cent=   200000004 NGrid=           0
         NMat0=    1 NMatS0=      1 NMatT0=    0 NMatD0=    1 NMtDS0=    0 NMtDT0=    0
 Petite list used in FoFCou.
 Harris En= -192.017074616966    
 Leave Link  401 at Thu Mar 19 17:39:10 2026, MaxMem=   536870912 cpu:         0.0
 (Enter C:\G09W\l502.exe)
 Closed shell SCF:
 Using DIIS extrapolation, IDIIS=  1040.
 Integral symmetry usage will be decided dynamically.
 Keep R1 ints in memory in canonical form, NReq=4383602.
 IVT=       35086 IEndB=       35086 NGot=   536870912 MDV=   533381321
 LenX=   533381321 LenY=   533375696
 Requested convergence on RMS density matrix=1.00D-08 within 128 cycles.
 Requested convergence on MAX density matrix=1.00D-06.
 Requested convergence on             energy=1.00D-06.
 No special actions if energy rises.
 FoFCou: FMM=F IPFlag=           0 FMFlag=           0 FMFlg1=           0
         NFxFlg=           0 DoJE=F BraDBF=F KetDBF=F FulRan=T
         wScrn=  0.000000 ICntrl=     600 IOpCl=  0 I1Cent=           0 NGrid=           0
         NMat0=    1 NMatS0=   2628 NMatT0=    0 NMatD0=    1 NMtDS0=    0 NMtDT0=    0
 Symmetry not used in FoFCou.
 Integral accuracy reduced to 1.0D-05 until final iterations.

 Cycle   1  Pass 0  IDiag  1:
 E= -191.993985429792    
 DIIS: error= 2.42D-03 at cycle   1 NSaved=   1.
 NSaved= 1 IEnMin= 1 EnMin= -191.993985429792     IErMin= 1 ErrMin= 2.42D-03
 ErrMax= 2.42D-03  0.00D+00 EMaxC= 1.00D-01 BMatC= 9.82D-04 BMatP= 9.82D-04
 IDIUse=3 WtCom= 9.76D-01 WtEn= 2.42D-02
 Coeff-Com:  0.100D+01
 Coeff-En:   0.100D+01
 Coeff:      0.100D+01
 Gap=     1.451 Goal=   None    Shift=    0.000
 GapD=    1.451 DampG=2.000 DampE=1.000 DampFc=2.0000 IDamp=-1.
 RMSDP=1.16D-03 MaxDP=8.98D-03              OVMax= 4.17D-02

 Cycle   2  Pass 0  IDiag  1:
 E= -191.996427873419     Delta-E=       -0.002442443628 Rises=F Damp=F
 DIIS: error= 1.53D-03 at cycle   2 NSaved=   2.
 NSaved= 2 IEnMin= 2 EnMin= -191.996427873419     IErMin= 2 ErrMin= 1.53D-03
 ErrMax= 1.53D-03  0.00D+00 EMaxC= 1.00D-01 BMatC= 2.93D-04 BMatP= 9.82D-04
 IDIUse=3 WtCom= 9.85D-01 WtEn= 1.53D-02
 Coeff-Com:  0.257D+00 0.743D+00
 Coeff-En:   0.000D+00 0.100D+01
 Coeff:      0.253D+00 0.747D+00
 Gap=     0.050 Goal=   None    Shift=    0.000
 RMSDP=1.15D-03 MaxDP=1.92D-02 DE=-2.44D-03 OVMax= 5.49D-02

 Cycle   3  Pass 0  IDiag  1:
 E= -191.990659559931     Delta-E=        0.005768313489 Rises=F Damp=F
 DIIS: error= 7.69D-03 at cycle   3 NSaved=   3.
 NSaved= 3 IEnMin= 2 EnMin= -191.996427873419     IErMin= 2 ErrMin= 1.53D-03
 ErrMax= 7.69D-03  0.00D+00 EMaxC= 1.00D-01 BMatC= 4.42D-03 BMatP= 2.93D-04
 IDIUse=3 WtCom= 1.02D-01 WtEn= 8.98D-01
 Coeff-Com:  0.594D-01 0.763D+00 0.177D+00
 Coeff-En:   0.000D+00 0.854D+00 0.146D+00
 Coeff:      0.608D-02 0.844D+00 0.150D+00
 Gap=     0.051 Goal=   None    Shift=    0.000
 RMSDP=7.02D-04 MaxDP=1.14D-02 DE= 5.77D-03 OVMax= 3.94D-02

 Cycle   4  Pass 0  IDiag  1:
 E= -191.996539019600     Delta-E=       -0.005879459669 Rises=F Damp=F
 DIIS: error= 1.84D-03 at cycle   4 NSaved=   4.
 NSaved= 4 IEnMin= 4 EnMin= -191.996539019600     IErMin= 2 ErrMin= 1.53D-03
 ErrMax= 1.84D-03  0.00D+00 EMaxC= 1.00D-01 BMatC= 2.77D-04 BMatP= 2.93D-04
 IDIUse=3 WtCom= 9.82D-01 WtEn= 1.84D-02
 Coeff-Com: -0.122D-01 0.568D+00 0.593D-01 0.385D+00
 Coeff-En:   0.000D+00 0.454D+00 0.000D+00 0.546D+00
 Coeff:     -0.120D-01 0.566D+00 0.582D-01 0.388D+00
 Gap=     0.053 Goal=   None    Shift=    0.000
 RMSDP=4.44D-04 MaxDP=9.35D-03 DE=-5.88D-03 OVMax= 1.84D-02

 Cycle   5  Pass 0  IDiag  1:
 E= -191.996810915730     Delta-E=       -0.000271896130 Rises=F Damp=F
 DIIS: error= 1.79D-03 at cycle   5 NSaved=   5.
 NSaved= 5 IEnMin= 5 EnMin= -191.996810915730     IErMin= 2 ErrMin= 1.53D-03
 ErrMax= 1.79D-03  0.00D+00 EMaxC= 1.00D-01 BMatC= 1.26D-04 BMatP= 2.77D-04
 IDIUse=3 WtCom= 9.82D-01 WtEn= 1.79D-02
 Coeff-Com: -0.295D-01 0.319D+00-0.489D-02 0.428D+00 0.288D+00
 Coeff-En:   0.000D+00 0.000D+00 0.000D+00 0.346D+00 0.654D+00
 Coeff:     -0.290D-01 0.313D+00-0.480D-02 0.427D+00 0.294D+00
 Gap=     0.053 Goal=   None    Shift=    0.000
 RMSDP=2.02D-04 MaxDP=3.62D-03 DE=-2.72D-04 OVMax= 7.61D-03

 Cycle   6  Pass 0  IDiag  1:
 E= -191.997005798006     Delta-E=       -0.000194882276 Rises=F Damp=F
 DIIS: error= 4.70D-04 at cycle   6 NSaved=   6.
 NSaved= 6 IEnMin= 6 EnMin= -191.997005798006     IErMin= 6 ErrMin= 4.70D-04
 ErrMax= 4.70D-04  0.00D+00 EMaxC= 1.00D-01 BMatC= 2.23D-05 BMatP= 1.26D-04
 IDIUse=3 WtCom= 9.95D-01 WtEn= 4.70D-03
 Coeff-Com: -0.233D-01 0.164D+00-0.165D-01 0.311D+00 0.258D+00 0.307D+00
 Coeff-En:   0.000D+00 0.000D+00 0.000D+00 0.000D+00 0.830D-01 0.917D+00
 Coeff:     -0.232D-01 0.163D+00-0.165D-01 0.310D+00 0.257D+00 0.310D+00
 Gap=     0.052 Goal=   None    Shift=    0.000
 RMSDP=1.28D-04 MaxDP=1.84D-03 DE=-1.95D-04 OVMax= 6.73D-03

 Cycle   7  Pass 0  IDiag  1:
 E= -191.997046845244     Delta-E=       -0.000041047238 Rises=F Damp=F
 DIIS: error= 2.22D-04 at cycle   7 NSaved=   7.
 NSaved= 7 IEnMin= 7 EnMin= -191.997046845244     IErMin= 7 ErrMin= 2.22D-04
 ErrMax= 2.22D-04  0.00D+00 EMaxC= 1.00D-01 BMatC= 3.20D-06 BMatP= 2.23D-05
 IDIUse=3 WtCom= 9.98D-01 WtEn= 2.22D-03
 Coeff-Com:  0.353D-02-0.748D-01-0.601D-02-0.697D-01-0.475D-01 0.273D+00
 Coeff-Com:  0.921D+00
 Coeff-En:   0.000D+00 0.000D+00 0.000D+00 0.000D+00 0.000D+00 0.684D-01
 Coeff-En:   0.932D+00
 Coeff:      0.352D-02-0.746D-01-0.599D-02-0.696D-01-0.474D-01 0.273D+00
 Coeff:      0.921D+00
 Gap=     0.052 Goal=   None    Shift=    0.000
 RMSDP=1.43D-04 MaxDP=1.21D-03 DE=-4.10D-05 OVMax= 8.97D-03

 Cycle   8  Pass 0  IDiag  1:
 E= -191.997065839482     Delta-E=       -0.000018994238 Rises=F Damp=F
 DIIS: error= 1.74D-04 at cycle   8 NSaved=   8.
 NSaved= 8 IEnMin= 8 EnMin= -191.997065839482     IErMin= 8 ErrMin= 1.74D-04
 ErrMax= 1.74D-04  0.00D+00 EMaxC= 1.00D-01 BMatC= 1.94D-06 BMatP= 3.20D-06
 IDIUse=3 WtCom= 9.98D-01 WtEn= 1.74D-03
 Coeff-Com:  0.662D-02-0.958D-01-0.509D-02-0.110D+00-0.812D-01 0.219D+00
 Coeff-Com:  0.758D+00 0.309D+00
 Coeff-En:   0.000D+00 0.000D+00 0.000D+00 0.000D+00 0.000D+00 0.000D+00
 Coeff-En:   0.000D+00 0.100D+01
 Coeff:      0.661D-02-0.956D-01-0.508D-02-0.110D+00-0.811D-01 0.219D+00
 Coeff:      0.756D+00 0.310D+00
 Gap=     0.052 Goal=   None    Shift=    0.000
 RMSDP=4.87D-05 MaxDP=4.14D-04 DE=-1.90D-05 OVMax= 3.13D-03

 Cycle   9  Pass 0  IDiag  1:
 E= -191.997069754446     Delta-E=       -0.000003914964 Rises=F Damp=F
 DIIS: error= 1.38D-04 at cycle   9 NSaved=   9.
 NSaved= 9 IEnMin= 9 EnMin= -191.997069754446     IErMin= 9 ErrMin= 1.38D-04
 ErrMax= 1.38D-04  0.00D+00 EMaxC= 1.00D-01 BMatC= 8.15D-07 BMatP= 1.94D-06
 IDIUse=3 WtCom= 9.99D-01 WtEn= 1.38D-03
 Coeff-Com:  0.443D-02-0.275D-01-0.424D-02-0.556D-01-0.612D-01 0.432D-01
 Coeff-Com: -0.362D-01 0.315D+00 0.822D+00
 Coeff-En:   0.000D+00 0.000D+00 0.000D+00 0.000D+00 0.000D+00 0.000D+00
 Coeff-En:   0.000D+00 0.000D+00 0.100D+01
 Coeff:      0.442D-02-0.274D-01-0.424D-02-0.555D-01-0.611D-01 0.432D-01
 Coeff:     -0.362D-01 0.315D+00 0.822D+00
 Gap=     0.053 Goal=   None    Shift=    0.000
 RMSDP=7.96D-05 MaxDP=6.59D-04 DE=-3.91D-06 OVMax= 5.17D-03

 Cycle  10  Pass 0  IDiag  1:
 E= -191.997074440373     Delta-E=       -0.000004685926 Rises=F Damp=F
 DIIS: error= 8.71D-05 at cycle  10 NSaved=  10.
 NSaved=10 IEnMin=10 EnMin= -191.997074440373     IErMin=10 ErrMin= 8.71D-05
 ErrMax= 8.71D-05  0.00D+00 EMaxC= 1.00D-01 BMatC= 3.62D-07 BMatP= 8.15D-07
 IDIUse=1 WtCom= 1.00D+00 WtEn= 0.00D+00
 Coeff-Com:  0.117D-02 0.918D-02-0.519D-02 0.271D-03-0.256D-01-0.196D-01
 Coeff-Com: -0.290D+00 0.782D-01 0.663D+00 0.589D+00
 Coeff:      0.117D-02 0.918D-02-0.519D-02 0.271D-03-0.256D-01-0.196D-01
 Coeff:     -0.290D+00 0.782D-01 0.663D+00 0.589D+00
 Gap=     0.052 Goal=   None    Shift=    0.000
 RMSDP=4.99D-05 MaxDP=4.42D-04 DE=-4.69D-06 OVMax= 3.17D-03

 Cycle  11  Pass 0  IDiag  1:
 E= -191.997075992590     Delta-E=       -0.000001552218 Rises=F Damp=F
 DIIS: error= 6.06D-05 at cycle  11 NSaved=  11.
 NSaved=11 IEnMin=11 EnMin= -191.997075992590     IErMin=11 ErrMin= 6.06D-05
 ErrMax= 6.06D-05  0.00D+00 EMaxC= 1.00D-01 BMatC= 1.40D-07 BMatP= 3.62D-07
 IDIUse=1 WtCom= 1.00D+00 WtEn= 0.00D+00
 Coeff-Com: -0.133D-02 0.199D-01-0.341D-02 0.281D-01 0.185D-02-0.170D-01
 Coeff-Com: -0.133D+00-0.149D+00-0.149D-01 0.538D+00 0.731D+00
 Coeff:     -0.133D-02 0.199D-01-0.341D-02 0.281D-01 0.185D-02-0.170D-01
 Coeff:     -0.133D+00-0.149D+00-0.149D-01 0.538D+00 0.731D+00
 Gap=     0.052 Goal=   None    Shift=    0.000
 RMSDP=3.20D-05 MaxDP=2.61D-04 DE=-1.55D-06 OVMax= 2.14D-03

 Cycle  12  Pass 0  IDiag  1:
 E= -191.997076676820     Delta-E=       -0.000000684229 Rises=F Damp=F
 DIIS: error= 1.70D-05 at cycle  12 NSaved=  12.
 NSaved=12 IEnMin=12 EnMin= -191.997076676820     IErMin=12 ErrMin= 1.70D-05
 ErrMax= 1.70D-05  0.00D+00 EMaxC= 1.00D-01 BMatC= 1.91D-08 BMatP= 1.40D-07
 IDIUse=1 WtCom= 1.00D+00 WtEn= 0.00D+00
 Coeff-Com: -0.444D-03 0.254D-02-0.721D-03 0.433D-02 0.312D-02 0.764D-02
 Coeff-Com:  0.175D-01-0.469D-01-0.147D+00-0.426D-02 0.104D+00 0.106D+01
 Coeff:     -0.444D-03 0.254D-02-0.721D-03 0.433D-02 0.312D-02 0.764D-02
 Coeff:      0.175D-01-0.469D-01-0.147D+00-0.426D-02 0.104D+00 0.106D+01
 Gap=     0.052 Goal=   None    Shift=    0.000
 RMSDP=1.70D-05 MaxDP=1.47D-04 DE=-6.84D-07 OVMax= 1.13D-03

 Cycle  13  Pass 0  IDiag  1:
 E= -191.997076777424     Delta-E=       -0.000000100604 Rises=F Damp=F
 DIIS: error= 4.47D-06 at cycle  13 NSaved=  13.
 NSaved=13 IEnMin=13 EnMin= -191.997076777424     IErMin=13 ErrMin= 4.47D-06
 ErrMax= 4.47D-06  0.00D+00 EMaxC= 1.00D-01 BMatC= 1.61D-09 BMatP= 1.91D-08
 IDIUse=1 WtCom= 1.00D+00 WtEn= 0.00D+00
 Coeff-Com:  0.243D-04-0.135D-02-0.206D-03-0.174D-02 0.419D-03 0.599D-02
 Coeff-Com:  0.215D-01 0.777D-02-0.493D-01-0.617D-01-0.619D-01 0.346D+00
 Coeff-Com:  0.795D+00
 Coeff:      0.243D-04-0.135D-02-0.206D-03-0.174D-02 0.419D-03 0.599D-02
 Coeff:      0.215D-01 0.777D-02-0.493D-01-0.617D-01-0.619D-01 0.346D+00
 Coeff:      0.795D+00
 Gap=     0.052 Goal=   None    Shift=    0.000
 RMSDP=2.31D-06 MaxDP=1.93D-05 DE=-1.01D-07 OVMax= 1.47D-04

 Initial convergence to 1.0D-05 achieved.  Increase integral accuracy.
 Cycle  14  Pass 1  IDiag  1:
 E= -191.997059511400     Delta-E=        0.000017266024 Rises=F Damp=F
 DIIS: error= 5.05D-06 at cycle   1 NSaved=   1.
 NSaved= 1 IEnMin= 1 EnMin= -191.997059511400     IErMin= 1 ErrMin= 5.05D-06
 ErrMax= 5.05D-06  0.00D+00 EMaxC= 1.00D-01 BMatC= 5.29D-09 BMatP= 5.29D-09
 IDIUse=1 WtCom= 1.00D+00 WtEn= 0.00D+00
 Coeff-Com:  0.100D+01
 Coeff:      0.100D+01
 Gap=     0.052 Goal=   None    Shift=    0.000
 RMSDP=2.31D-06 MaxDP=1.93D-05 DE= 1.73D-05 OVMax= 6.34D-05

 Cycle  15  Pass 1  IDiag  1:
 E= -191.997059514149     Delta-E=       -0.000000002749 Rises=F Damp=F
 DIIS: error= 7.51D-06 at cycle   2 NSaved=   2.
 NSaved= 2 IEnMin= 2 EnMin= -191.997059514149     IErMin= 1 ErrMin= 5.05D-06
 ErrMax= 7.51D-06  0.00D+00 EMaxC= 1.00D-01 BMatC= 4.16D-09 BMatP= 5.29D-09
 IDIUse=1 WtCom= 1.00D+00 WtEn= 0.00D+00
 Coeff-Com:  0.446D+00 0.554D+00
 Coeff:      0.446D+00 0.554D+00
 Gap=     0.052 Goal=   None    Shift=    0.000
 RMSDP=3.75D-06 MaxDP=6.68D-05 DE=-2.75D-09 OVMax= 2.07D-04

 Cycle  16  Pass 1  IDiag  1:
 E= -191.997059455806     Delta-E=        0.000000058344 Rises=F Damp=F
 DIIS: error= 2.58D-05 at cycle   3 NSaved=   3.
 NSaved= 3 IEnMin= 2 EnMin= -191.997059514149     IErMin= 1 ErrMin= 5.05D-06
 ErrMax= 2.58D-05  0.00D+00 EMaxC= 1.00D-01 BMatC= 4.58D-08 BMatP= 4.16D-09
 IDIUse=1 WtCom= 1.00D+00 WtEn= 0.00D+00
 Coeff-Com:  0.120D-01 0.763D+00 0.225D+00
 Coeff:      0.120D-01 0.763D+00 0.225D+00
 Gap=     0.052 Goal=   None    Shift=    0.000
 RMSDP=2.76D-06 MaxDP=4.59D-05 DE= 5.83D-08 OVMax= 1.47D-04

 Cycle  17  Pass 1  IDiag  1:
 E= -191.997059517364     Delta-E=       -0.000000061559 Rises=F Damp=F
[...]
    D6        2.18946   0.00324   0.00390   0.12243   0.12708   2.31654
    D7       -2.25811  -0.00333  -0.01328  -0.11843  -0.13106  -2.38917
    D8        1.03619  -0.00546   0.01184  -0.10736  -0.09176   0.94443
    D9        0.82465   0.00363   0.00221   0.01249   0.01537   0.84002
   D10        0.78590  -0.00286  -0.00471   0.01883   0.01413   0.80003
   D11        1.08867   0.00053   0.01415  -0.02021  -0.00651   1.08216
   D12       -0.80690   0.00201   0.00115  -0.01536  -0.01410  -0.82101
   D13       -2.36721  -0.00090  -0.00717  -0.02639  -0.03352  -2.40073
   D14        1.98157   0.00648  -0.03430   0.13718   0.10111   2.08268
   D15       -0.28152   0.00509  -0.01793   0.08386   0.06430  -0.21722
   D16       -2.95095   0.00280  -0.02586   0.06492   0.03885  -2.91210
   D17       -0.76506   0.01520  -0.01601   0.09517   0.08035  -0.68470
   D18        2.31324   0.00452  -0.02629   0.10470   0.07839   2.39163
   D19       -0.55101   0.00931  -0.01438   0.08873   0.07413  -0.47688
   D20        0.20875   0.01194  -0.00830   0.04200   0.03466   0.24341
   D21       -2.99614   0.00126  -0.01858   0.05153   0.03270  -2.96344
   D22        0.42280   0.00606  -0.00667   0.03556   0.02844   0.45124
   D23        3.12386   0.00783  -0.00396   0.00227   0.00012   3.12398
   D24       -0.08103  -0.00285  -0.01424   0.01180  -0.00184  -0.08287
   D25       -2.94527   0.00195  -0.00233  -0.00417  -0.00611  -2.95138
   D26        0.13962  -0.00143   0.01254  -0.05415  -0.03947   0.10015
   D27        0.22486  -0.00312   0.02632  -0.05146  -0.02240   0.20246
   D28       -0.57348  -0.00678   0.01328  -0.05344  -0.03796  -0.61144
   D29       -0.48824  -0.00847   0.02706  -0.05075  -0.02089  -0.50913
   D30        2.86129   0.00068   0.01045  -0.00085   0.01064   2.87193
   D31        2.94653  -0.00101   0.02423   0.00184   0.02771   2.97424
   D32       -0.91212  -0.00405   0.01206  -0.00982   0.00231  -0.90981
   D33        1.88533  -0.00103  -0.00236   0.03365   0.03111   1.91643
   D34        0.04691   0.00154   0.00872  -0.00710   0.00112   0.04803
   D35        2.84436   0.00456  -0.00570   0.03637   0.02992   2.87428
   D36        2.89921  -0.00504   0.00871  -0.05142  -0.04164   2.85757
   D37       -0.58653  -0.00202  -0.00571  -0.00794  -0.01285  -0.59937
         Item               Value     Threshold  Converged?
 Maximum Force            0.057245     0.000450     NO 
 RMS     Force            0.010700     0.000300     NO 
 Maximum Displacement     0.220142     0.001800     NO 
 RMS     Displacement     0.052816     0.001200     NO 
 Predicted change in Energy=-1.364170D-02
 Lowest energy point so far.  Saving SCF results.
 GradGradGradGradGradGradGradGradGradGradGradGradGradGradGradGradGradGrad

 Leave Link  103 at Thu Mar 19 17:43:28 2026, MaxMem=   536870912 cpu:         0.0
 (Enter C:\G09W\l202.exe)
                          Input orientation:                          
 ---------------------------------------------------------------------
 Center     Atomic      Atomic             Coordinates (Angstroms)
 Number     Number       Type             X           Y           Z
 ---------------------------------------------------------------------
      1          6           0       -1.457989   -1.080964   -0.114967
      2          6           0       -0.577144   -0.552580    0.682353
      3          6           0        1.024656    0.162218   -0.969024
      4          8           0        0.442491    0.317638    0.230358
      5          1           0        2.315474    2.782959    0.383939
      6          1           0       -2.211011   -1.651588    0.317320
      7          1           0       -1.558215   -0.785673   -1.089319
      8          1           0        0.564857   -0.775840   -1.351015
      9          1           0       -0.636209   -0.560871    1.787465
     10          1           0        2.093091    2.144701    0.122889
 ---------------------------------------------------------------------
                    Distance matrix (angstroms):
                    1          2          3          4          5
     1  C    0.000000
     2  C    1.300307   0.000000
     3  C    2.904899   2.409096   0.000000
     4  O    2.384777   1.414649   1.342232   0.000000
     5  H    5.423821   4.425168   3.219472   3.099913   0.000000
     6  H    1.039003   2.002646   3.926081   3.305524   6.337090
     7  H    1.023036   2.038543   2.753941   2.638497   5.469103
     8  H    2.390151   2.342775   1.112333   1.926501   4.328946
     9  H    2.136602   1.106720   3.298417   2.088050   4.675844
    10  H    4.803297   3.836467   2.502812   2.464588   0.724551
                    6          7          8          9         10
     6  H    0.000000
     7  H    1.776115   0.000000
     8  H    3.354955   2.139163   0.000000
     9  H    2.414744   3.029276   3.367317   0.000000
    10  H    5.742379   4.836174   3.610741   4.188080   0.000000
 Stoichiometry    C3H6O
 Framework group  C1[X(C3H6O)]
 Deg. of freedom    24
 Full point group                 C1      NOp   1
 RotChk:  IX=1 Diff= 4.16D-02
 Largest Abelian subgroup         C1      NOp   1
 Largest concise Abelian subgroup C1      NOp   1
                         Standard orientation:                         
 ---------------------------------------------------------------------
 Center     Atomic      Atomic             Coordinates (Angstroms)
 Number     Number       Type             X           Y           Z
 ---------------------------------------------------------------------
      1          6           0       -1.648270   -0.235584   -0.192284
      2          6           0       -0.718340    0.598628    0.168437
      3          6           0        1.153531   -0.917860    0.158215
      4          8           0        0.660811    0.322628    0.016780
      5          1           0        3.614230    0.999443   -0.637970
      6          1           0       -2.633664    0.082611   -0.106976
      7          1           0       -1.445012   -1.075341   -0.740096
      8          1           0        0.263644   -1.506557    0.472572
      9          1           0       -0.887454    1.657747    0.441375
     10          1           0        3.080237    0.589967   -0.369353
 ---------------------------------------------------------------------
 Rotational constants (GHZ):     19.0528669      5.1936378      4.2560049
 Leave Link  202 at Thu Mar 19 17:43:28 2026, MaxMem=   536870912 cpu:         0.0
 (Enter C:\G09W\l301.exe)
 Standard basis: 6-31G(d) (6D, 7F)
 Ernie: Thresh=  0.10000D-02 Tol=  0.10000D-05 Strict=F.
 There are    72 symmetry adapted cartesian basis functions of A   symmetry.
 There are    72 symmetry adapted basis functions of A   symmetry.
    72 basis functions,   136 primitive gaussians,    72 cartesian basis functions
    16 alpha electrons       16 beta electrons
       nuclear repulsion energy       116.8808398129 Hartrees.
 IExCor=  402 DFT=T Ex+Corr=B3LYP ExCW=0 ScaHFX=  0.200000
 ScaDFX=  0.800000  0.720000  1.000000  0.810000 ScalE2=  1.000000  1.000000
 IRadAn=      0 IRanWt=     -1 IRanGd=            0 ICorTp=0 IEmpDi=  4
 NAtoms=   10 NActive=   10 NUniq=   10 SFac= 1.00D+00 NAtFMM=   60 NAOKFM=F Big=F
 Integral buffers will be    131072 words long.
 Raffenetti 2 integral format.
 Two-electron integral symmetry is turned on.
 Leave Link  301 at Thu Mar 19 17:43:29 2026, MaxMem=   536870912 cpu:         0.0
 (Enter C:\G09W\l302.exe)
 NPDir=0 NMtPBC=     1 NCelOv=     1 NCel=       1 NClECP=     1 NCelD=      1
         NCelK=      1 NCelE2=     1 NClLst=     1 CellRange=     0.0.
 One-electron integrals computed using PRISM.
 NBasis=    72 RedAO= T EigKep=  4.58D-03  NBF=    72
 NBsUse=    72 1.00D-06 EigRej= -1.00D+00 NBFU=    72
 Precomputing XC quadrature grid using
 IXCGrd= 4 IRadAn=           0 IRanWt=          -1 IRanGd=           0 AccXCQ= 0.00D+00.
 Generated NRdTot=       0 NPtTot=           0 NUsed=           0 NTot=          32
 NSgBfM=    72    72    72    72    72 MxSgAt=    10 MxSgA2=    10.
 Leave Link  302 at Thu Mar 19 17:43:30 2026, MaxMem=   536870912 cpu:         0.0
 (Enter C:\G09W\l303.exe)
 DipDrv:  MaxL=1.
 Leave Link  303 at Thu Mar 19 17:43:31 2026, MaxMem=   536870912 cpu:         1.0
 (Enter C:\G09W\l401.exe)
 Initial guess from the checkpoint file:  "acetone_xtb.chk"
 B after Tr=     0.000000    0.000000    0.000000
         Rot=    0.999879   -0.014712   -0.001561   -0.004823 Ang=  -1.78 deg.
 Guess basis will be translated and rotated to current coordinates.
 JPrj=2 DoOrth=T DoCkMO=T.
 Generating alternative initial guess.
 ExpMin= 1.61D-01 ExpMax= 5.48D+03 ExpMxC= 8.25D+02 IAcc=1 IRadAn=         1 AccDes= 0.00D+00
 Harris functional with IExCor=  402 and IRadAn=       1 diagonalized for initial guess.
 HarFok:  IExCor=  402 AccDes= 0.00D+00 IRadAn=         1 IDoV= 1 UseB2=F ITyADJ=14
 ICtDFT=  3500011 ScaDFX=  1.000000  1.000000  1.000000  1.000000
 FoFCou: FMM=F IPFlag=           0 FMFlag=      100000 FMFlg1=           0
         NFxFlg=           0 DoJE=T BraDBF=F KetDBF=T FulRan=T
         wScrn=  0.000000 ICntrl=     500 IOpCl=  0 I1Cent=   200000004 NGrid=           0
         NMat0=    1 NMatS0=      1 NMatT0=    0 NMatD0=    1 NMtDS0=    0 NMtDT0=    0
 Petite list used in FoFCou.
 Harris En= -192.988462250059    
 Leave Link  401 at Thu Mar 19 17:43:31 2026, MaxMem=   536870912 cpu:         0.0
 (Enter C:\G09W\l502.exe)
 Closed shell SCF:
 Using DIIS extrapolation, IDIIS=  1040.
 Integral symmetry usage will be decided dynamically.
 Keep R1 ints in memory in canonical form, NReq=4383602.
 IVT=       35086 IEndB=       35086 NGot=   536870912 MDV=   533381321
 LenX=   533381321 LenY=   533375696
 Requested convergence on RMS density matrix=1.00D-08 within 128 cycles.
 Requested convergence on MAX density matrix=1.00D-06.
 Requested convergence on             energy=1.00D-06.
 No special actions if energy rises.
 FoFCou: FMM=F IPFlag=           0 FMFlag=           0 FMFlg1=           0
         NFxFlg=           0 DoJE=F BraDBF=F KetDBF=F FulRan=T
         wScrn=  0.000000 ICntrl=     600 IOpCl=  0 I1Cent=           0 NGrid=           0
         NMat0=    1 NMatS0=   2628 NMatT0=    0 NMatD0=    1 NMtDS0=    0 NMtDT0=    0
 Symmetry not used in FoFCou.
 Integral accuracy reduced to 1.0D-05 until final iterations.

 Cycle   1  Pass 0  IDiag  1:
 E= -192.947287377100    
 DIIS: error= 4.24D-03 at cycle   1 NSaved=   1.
 NSaved= 1 IEnMin= 1 EnMin= -192.947287377100     IErMin= 1 ErrMin= 4.24D-03
 ErrMax= 4.24D-03  0.00D+00 EMaxC= 1.00D-01 BMatC= 5.87D-03 BMatP= 5.87D-03
 IDIUse=3 WtCom= 9.58D-01 WtEn= 4.24D-02
 Coeff-Com:  0.100D+01
 Coeff-En:   0.100D+01
 Coeff:      0.100D+01
 Gap=     1.564 Goal=   None    Shift=    0.000
 GapD=    1.564 DampG=2.000 DampE=1.000 DampFc=2.0000 IDamp=-1.
 RMSDP=2.00D-03 MaxDP=2.84D-02              OVMax= 4.24D-02

 Cycle   2  Pass 0  IDiag  1:
 E= -192.953837393855     Delta-E=       -0.006550016755 Rises=F Damp=F
 DIIS: error= 4.45D-03 at cycle   2 NSaved=   2.
 NSaved= 2 IEnMin= 2 EnMin= -192.953837393855     IErMin= 1 ErrMin= 4.24D-03
 ErrMax= 4.45D-03  0.00D+00 EMaxC= 1.00D-01 BMatC= 2.88D-03 BMatP= 5.87D-03
 IDIUse=3 WtCom= 9.55D-01 WtEn= 4.45D-02
 Coeff-Com:  0.376D+00 0.624D+00
 Coeff-En:   0.000D+00 0.100D+01
 Coeff:      0.359D+00 0.641D+00
 Gap=     0.160 Goal=   None    Shift=    0.000
 RMSDP=1.08D-03 MaxDP=2.41D-02 DE=-6.55D-03 OVMax= 4.82D-02

 Cycle   3  Pass 0  IDiag  1:
 E= -192.955344618476     Delta-E=       -0.001507224621 Rises=F Damp=F
 DIIS: error= 3.40D-03 at cycle   3 NSaved=   3.
 NSaved= 3 IEnMin= 3 EnMin= -192.955344618476     IErMin= 3 ErrMin= 3.40D-03
 ErrMax= 3.40D-03  0.00D+00 EMaxC= 1.00D-01 BMatC= 1.38D-03 BMatP= 2.88D-03
 IDIUse=3 WtCom= 9.66D-01 WtEn= 3.40D-02
 Coeff-Com:  0.344D-02 0.405D+00 0.591D+00
 Coeff-En:   0.000D+00 0.352D+00 0.648D+00
 Coeff:      0.333D-02 0.403D+00 0.593D+00
 Gap=     0.158 Goal=   None    Shift=    0.000
 RMSDP=5.70D-04 MaxDP=9.69D-03 DE=-1.51D-03 OVMax= 2.42D-02

 Cycle   4  Pass 0  IDiag  1:
 E= -192.956657921296     Delta-E=       -0.001313302820 Rises=F Damp=F
 DIIS: error= 1.11D-03 at cycle   4 NSaved=   4.
 NSaved= 4 IEnMin= 4 EnMin= -192.956657921296     IErMin= 4 ErrMin= 1.11D-03
 ErrMax= 1.11D-03  0.00D+00 EMaxC= 1.00D-01 BMatC= 1.52D-04 BMatP= 1.38D-03
 IDIUse=3 WtCom= 9.89D-01 WtEn= 1.11D-02
 Coeff-Com: -0.185D-01 0.209D+00 0.375D+00 0.435D+00
 Coeff-En:   0.000D+00 0.000D+00 0.144D-01 0.986D+00
 Coeff:     -0.183D-01 0.207D+00 0.371D+00 0.441D+00
 Gap=     0.157 Goal=   None    Shift=    0.000
 RMSDP=1.62D-04 MaxDP=2.63D-03 DE=-1.31D-03 OVMax= 4.81D-03

 Cycle   5  Pass 0  IDiag  1:
 E= -192.956800356167     Delta-E=       -0.000142434871 Rises=F Damp=F
 DIIS: error= 2.04D-04 at cycle   5 NSaved=   5.
 NSaved= 5 IEnMin= 5 EnMin= -192.956800356167     IErMin= 5 ErrMin= 2.04D-04
 ErrMax= 2.04D-04  0.00D+00 EMaxC= 1.00D-01 BMatC= 7.23D-06 BMatP= 1.52D-04
 IDIUse=3 WtCom= 9.98D-01 WtEn= 2.04D-03
 Coeff-Com: -0.980D-02 0.791D-01 0.159D+00 0.239D+00 0.533D+00
 Coeff-En:   0.000D+00 0.000D+00 0.000D+00 0.000D+00 0.100D+01
 Coeff:     -0.978D-02 0.789D-01 0.158D+00 0.238D+00 0.534D+00
 Gap=     0.158 Goal=   None    Shift=    0.000
 RMSDP=3.85D-05 MaxDP=7.14D-04 DE=-1.42D-04 OVMax= 1.02D-03

 Cycle   6  Pass 0  IDiag  1:
 E= -192.956806130883     Delta-E=       -0.000005774716 Rises=F Damp=F
 DIIS: error= 5.76D-05 at cycle   6 NSaved=   6.
 NSaved= 6 IEnMin= 6 EnMin= -192.956806130883     IErMin= 6 ErrMin= 5.76D-05
 ErrMax= 5.76D-05  0.00D+00 EMaxC= 1.00D-01 BMatC= 8.25D-07 BMatP= 7.23D-06
 IDIUse=1 WtCom= 1.00D+00 WtEn= 0.00D+00
 Coeff-Com: -0.238D-02 0.127D-01 0.339D-01 0.699D-01 0.294D+00 0.592D+00
 Coeff:     -0.238D-02 0.127D-01 0.339D-01 0.699D-01 0.294D+00 0.592D+00
 Gap=     0.158 Goal=   None    Shift=    0.000
 RMSDP=1.17D-05 MaxDP=1.92D-04 DE=-5.77D-06 OVMax= 2.46D-04

 Cycle   7  Pass 0  IDiag  1:
 E= -192.956806764596     Delta-E=       -0.000000633712 Rises=F Damp=F
 DIIS: error= 2.86D-05 at cycle   7 NSaved=   7.
 NSaved= 7 IEnMin= 7 EnMin= -192.956806764596     IErMin= 7 ErrMin= 2.86D-05
 ErrMax= 2.86D-05  0.00D+00 EMaxC= 1.00D-01 BMatC= 6.13D-08 BMatP= 8.25D-07
 IDIUse=1 WtCom= 1.00D+00 WtEn= 0.00D+00
 Coeff-Com: -0.497D-03-0.400D-03 0.365D-02 0.158D-01 0.103D+00 0.300D+00
 Coeff-Com:  0.578D+00
 Coeff:     -0.497D-03-0.400D-03 0.365D-02 0.158D-01 0.103D+00 0.300D+00
 Coeff:      0.578D+00
 Gap=     0.158 Goal=   None    Shift=    0.000
 RMSDP=4.31D-06 MaxDP=7.26D-05 DE=-6.34D-07 OVMax= 8.49D-05

 Initial convergence to 1.0D-05 achieved.  Increase integral accuracy.
 Cycle   8  Pass 1  IDiag  1:
 E= -192.956799558441     Delta-E=        0.000007206154 Rises=F Damp=F
 DIIS: error= 8.24D-06 at cycle   1 NSaved=   1.
 NSaved= 1 IEnMin= 1 EnMin= -192.956799558441     IErMin= 1 ErrMin= 8.24D-06
 ErrMax= 8.24D-06  0.00D+00 EMaxC= 1.00D-01 BMatC= 6.43D-09 BMatP= 6.43D-09
 IDIUse=1 WtCom= 1.00D+00 WtEn= 0.00D+00
 Coeff-Com:  0.100D+01
 Coeff:      0.100D+01
 Gap=     0.158 Goal=   None    Shift=    0.000
 RMSDP=4.31D-06 MaxDP=7.26D-05 DE= 7.21D-06 OVMax= 3.23D-05

 Cycle   9  Pass 1  IDiag  1:
 E= -192.956799566301     Delta-E=       -0.000000007860 Rises=F Damp=F
 DIIS: error= 3.40D-06 at cycle   2 NSaved=   2.
 NSaved= 2 IEnMin= 2 EnMin= -192.956799566301     IErMin= 2 ErrMin= 3.40D-06
 ErrMax= 3.40D-06  0.00D+00 EMaxC= 1.00D-01 BMatC= 1.27D-09 BMatP= 6.43D-09
 IDIUse=1 WtCom= 1.00D+00 WtEn= 0.00D+00
 Coeff-Com:  0.223D+00 0.777D+00
 Coeff:      0.223D+00 0.777D+00
 Gap=     0.158 Goal=   None    Shift=    0.000
 RMSDP=9.57D-07 MaxDP=1.30D-05 DE=-7.86D-09 OVMax= 2.49D-05

 Cycle  10  Pass 1  IDiag  1:
 E= -192.956799566453     Delta-E=       -0.000000000152 Rises=F Damp=F
 DIIS: error= 3.42D-06 at cycle   3 NSaved=   3.
 NSaved= 3 IEnMin= 3 EnMin= -192.956799566453     IErMin= 2 ErrMin= 3.40D-06
 ErrMax= 3.42D-06  0.00D+00 EMaxC= 1.00D-01 BMatC= 1.23D-09 BMatP= 1.27D-09
 IDIUse=1 WtCom= 1.00D+00 WtEn= 0.00D+00
 Coeff-Com:  0.105D-01 0.495D+00 0.495D+00
 Coeff:      0.105D-01 0.495D+00 0.495D+00
 Gap=     0.158 Goal=   None    Shift=    0.000
 RMSDP=4.88D-07 MaxDP=8.17D-06 DE=-1.52D-10 OVMax= 1.55D-05

 Cycle  11  Pass 1  IDiag  1:
 E= -192.956799567573     Delta-E=       -0.000000001120 Rises=F Damp=F
 DIIS: error= 8.61D-07 at cycle   4 NSaved=   4.
 NSaved= 4 IEnMin= 4 EnMin= -192.956799567573     IErMin= 4 ErrMin= 8.61D-07
 ErrMax= 8.61D-07  0.00D+00 EMaxC= 1.00D-01 BMatC= 1.18D-10 BMatP= 1.23D-09
 IDIUse=1 WtCom= 1.00D+00 WtEn= 0.00D+00
 Coeff-Com: -0.165D-01 0.246D+00 0.305D+00 0.466D+00
 Coeff:     -0.165D-01 0.246D+00 0.305D+00 0.466D+00
 Gap=     0.158 Goal=   None    Shift=    0.000
 RMSDP=1.46D-07 MaxDP=2.62D-06 DE=-1.12D-09 OVMax= 4.09D-06

 Cycle  12  Pass 1  IDiag  1:
 E= -192.956799567673     Delta-E=       -0.000000000100 Rises=F Damp=F
 DIIS: error= 1.88D-07 at cycle   5 NSaved=   5.
 NSaved= 5 IEnMin= 5 EnMin= -192.956799567673     IErMin= 5 ErrMin= 1.88D-07
 ErrMax= 1.88D-07  0.00D+00 EMaxC= 1.00D-01 BMatC= 5.51D-12 BMatP= 1.18D-10
 IDIUse=1 WtCom= 1.00D+00 WtEn= 0.00D+00
 Coeff-Com: -0.881D-02 0.853D-01 0.114D+00 0.249D+00 0.560D+00
 Coeff:     -0.881D-02 0.853D-01 0.114D+00 0.249D+00 0.560D+00
 Gap=     0.158 Goal=   None    Shift=    0.000
 RMSDP=3.26D-08 MaxDP=4.31D-07 DE=-9.96D-11 OVMax= 5.99D-07

 Cycle  13  Pass 1  IDiag  1:
 E= -192.956799567674     Delta-E=       -0.000000000001 Rises=F Damp=F
 DIIS: error= 4.53D-08 at cycle   6 NSaved=   6.
 NSaved= 6 IEnMin= 6 EnMin= -192.956799567674     IErMin= 6 ErrMin= 4.53D-08
 ErrMax= 4.53D-08  0.00D+00 EMaxC= 1.00D-01 BMatC= 2.84D-13 BMatP= 5.51D-12
 IDIUse=1 WtCom= 1.00D+00 WtEn= 0.00D+00
 Coeff-Com: -0.214D-02 0.147D-01 0.196D-01 0.645D-01 0.218D+00 0.685D+00
 Coeff:     -0.214D-02 0.147D-01 0.196D-01 0.645D-01 0.218D+00 0.685D+00
 Gap=     0.158 Goal=   None    Shift=    0.000
 RMSDP=1.17D-08 MaxDP=1.89D-07 DE=-9.66D-13 OVMax= 3.85D-07

 Cycle  14  Pass 1  IDiag  1:
 E= -192.956799567675     Delta-E=       -0.000000000001 Rises=F Damp=F
 DIIS: error= 2.25D-08 at cycle   7 NSaved=   7.
 NSaved= 7 IEnMin= 7 EnMin= -192.956799567675     IErMin= 7 ErrMin= 2.25D-08
 ErrMax= 2.25D-08  0.00D+00 EMaxC= 1.00D-01 BMatC= 8.42D-14 BMatP= 2.84D-13
 IDIUse=1 WtCom= 1.00D+00 WtEn= 0.00D+00
 Coeff-Com:  0.307D-03-0.796D-02-0.104D-01-0.109D-01 0.123D-01 0.366D+00
 Coeff-Com:  0.650D+00
 Coeff:      0.307D-03-0.796D-02-0.104D-01-0.109D-01 0.123D-01 0.366D+00
 Coeff:      0.650D+00
 Gap=     0.158 Goal=   None    Shift=    0.000
 RMSDP=5.89D-09 MaxDP=8.28D-08 DE=-1.36D-12 OVMax= 1.98D-07

 SCF Done:  E(RB3LYP) =  -192.956799568     A.U. after   14 cycles
            NFock= 14  Conv=0.59D-08     -V/T= 2.0079
 KE= 1.914440884229D+02 PE=-6.827369215638D+02 EE= 1.814551937602D+02
 Leave Link  502 at Thu Mar 19 17:43:36 2026, MaxMem=   536870912 cpu:         4.0
 (Enter C:\G09W\l701.exe)
 Compute integral first derivatives.
 ... and contract with generalized density number  0.
 Leave Link  701 at Thu Mar 19 17:43:37 2026, MaxMem=   536870912 cpu:         1.0
 (Enter C:\G09W\l702.exe)
 L702 exits ... SP integral derivatives will be done elsewhere.
 Leave Link  702 at Thu Mar 19 17:43:37 2026, MaxMem=   536870912 cpu:         0.0
 (Enter C:\G09W\l703.exe)
 Compute integral first derivatives, UseDBF=F ICtDFT=           0.
 Integral derivatives from FoFJK, PRISM(SPDF).
 Calling FoFJK, ICntrl=      2127 FMM=F ISym2X=0 I1Cent= 0 IOpClX= 0 NMat=1 NMatS=1 NMatT=0.
 FoFJK:  IHMeth= 1 ICntrl=    2127 DoSepK=F KAlg= 0 I1Cent=   0 FoldK=F
 IRaf=         0 NMat=   1 IRICut=       1 DoRegI=T DoRafI=F ISym2E= 0.
 FoFCou: FMM=F IPFlag=           0 FMFlag=      100000 FMFlg1=         800
         NFxFlg=           0 DoJE=F BraDBF=F KetDBF=F FulRan=T
         wScrn=  0.000000 ICntrl=    2127 IOpCl=  0 I1Cent=           0 NGrid=           0
         NMat0=    1 NMatS0=      1 NMatT0=    0 NMatD0=    1 NMtDS0=    0 NMtDT0=    0
 Symmetry not used in FoFCou.
 Leave Link  703 at Thu Mar 19 17:43:38 2026, MaxMem=   536870912 cpu:         1.0
