10
 energy: -12.403149621234 gnorm: 0.002419803787 xtb: 6.7.1 (edcfbbe)
C           -2.03464780163844       -0.12444981015819        0.66561832430457
C            0.53323224231415       -1.31044811294992        1.26282622168873
C            1.40138363405792       -0.28195597533744       -1.30642259030705
O            0.09456523693583        0.29996815727757        0.11805886992236
H            1.17164484016591        2.54247701623131        0.41576357921469
H           -1.11254127203392       -1.57597779075507       -1.50032103608993
H           -1.16512630343261        0.45556291643455       -0.58689045558578
H            0.30146936263055       -1.06261780917096       -0.34307884645499
H           -0.46288943367859        0.03910785749914        1.49928743785092
H            1.27291049468023        1.01833355092848       -0.22484150454282
