 Entering Gaussian System, Link 0=C:\G09W\g09.exe
 Input=acetamide_rdkit.com
 Output=C:\workspace\delta_chem\data\raw\acetamide\acetamide_rdkit.out
 Initial command:
 C:\G09W\l1.exe ".\Gau-14732.inp" "C:\workspace\delta_chem\data\raw\acetamide\acetamide_rdkit.out" /scrdir=".\"
 Entering Link 1 = C:\G09W\l1.exe PID=       764.
  
 Copyright (c) 1988,1990,1992,1993,1995,1998,2003,2009,2013,
            Gaussian, Inc.  All Rights Reserved.
  
 This is part of the Gaussian(R) 09 program.  It is based on
 the Gaussian(R) 03 system (copyright 2003, Gaussian, Inc.),
 the Gaussian(R) 98 system (copyright 1998, Gaussian, Inc.),
 the Gaussian(R) 94 system (copyright 1995, Gaussian, Inc.),
 the Gaussian 92(TM) system (copyright 1992, Gaussian, Inc.),
 the Gaussian 90(TM) system (copyright 1990, Gaussian, Inc.),
 the Gaussian 88(TM) system (copyright 1988, Gaussian, Inc.),
 the Gaussian 86(TM) system (copyright 1986, Carnegie Mellon
 University), and the Gaussian 82(TM) system (copyright 1983,
 Carnegie Mellon University). Gaussian is a federally registered
 trademark of Gaussian, Inc.
  
 This software contains proprietary and confidential information,
 including trade secrets, belonging to Gaussian, Inc.
  
 This software is provided under written license and may be
 used, copied, transmitted, or stored only in accord with that
 written license.
  
 The following legend is applicable only to US Government
 contracts under FAR:
  
                    RESTRICTED RIGHTS LEGEND
  
 Use, reproduction and disclosure by the US Government is
 subject to restrictions as set forth in subparagraphs (a)
 and (c) of the Commercial Computer Software - Restricted
 Rights clause in FAR 52.227-19.
  
 Gaussian, Inc.
 340 Quinnipiac St., Bldg. 40, Wallingford CT 06492
  
  
 ---------------------------------------------------------------
 Warning -- This program may not be used in any manner that
 competes with the business of Gaussian, Inc. or will provide
 assistance to any competitor of Gaussian, Inc.  The licensee
 of this program is prohibited from giving any competitor of
 Gaussian, Inc. access to this program.  By using this program,
 the user acknowledges that Gaussian, Inc. is engaged in the
 business of creating and licensing software in the field of
 computational chemistry and represents and warrants to the
 licensee that it is not a competitor of Gaussian, Inc. and that
 it will not use this program in any manner prohibited above.
 ---------------------------------------------------------------
  

 Cite this work as:
 Gaussian 09, Revision D.01,
 M. J. Frisch, G. W. Trucks, H. B. Schlegel, G. E. Scuseria, 
 M. A. Robb, J. R. Cheeseman, G. Scalmani, V. Barone, B. Mennucci, 
 G. A. Petersson, H. Nakatsuji, M. Caricato, X. Li, H. P. Hratchian, 
 A. F. Izmaylov, J. Bloino, G. Zheng, J. L. Sonnenberg, M. Hada, 
 M. Ehara, K. Toyota, R. Fukuda, J. Hasegawa, M. Ishida, T. Nakajima, 
 Y. Honda, O. Kitao, H. Nakai, T. Vreven, J. A. Montgomery, Jr., 
 J. E. Peralta, F. Ogliaro, M. Bearpark, J. J. Heyd, E. Brothers, 
 K. N. Kudin, V. N. Staroverov, T. Keith, R. Kobayashi, J. Normand, 
 K. Raghavachari, A. Rendell, J. C. Burant, S. S. Iyengar, J. Tomasi, 
 M. Cossi, N. Rega, J. M. Millam, M. Klene, J. E. Knox, J. B. Cross, 
 V. Bakken, C. Adamo, J. Jaramillo, R. Gomperts, R. E. Stratmann, 
 O. Yazyev, A. J. Austin, R. Cammi, C. Pomelli, J. W. Ochterski, 
 R. L. Martin, K. Morokuma, V. G. Zakrzewski, G. A. Voth, 
 P. Salvador, J. J. Dannenberg, S. Dapprich, A. D. Daniels, 
 O. Farkas, J. B. Foresman, J. V. Ortiz, J. Cioslowski, 
 and D. J. Fox, Gaussian, Inc., Wallingford CT, 2013.
 
 ******************************************
 Gaussian 09:  EM64W-G09RevD.01 13-Apr-2013
                19-Mar-2026 
 ******************************************
 %NProcShared=4
 Will use up to    4 processors via shared memory.
 %Mem=4GB
 %Chk=acetamide_rdkit.chk
 ---------------------
 #p opt B3LYP/6-31G(d)
 ---------------------
 1/14=-1,18=20,19=15,26=3,38=1/1,3;
 2/9=110,12=2,17=6,18=5,40=1/2;
 3/5=1,6=6,7=1,11=2,16=1,25=1,30=1,71=1,74=-5/1,2,3;
 4//1;
 5/5=2,38=5/2;
 6/7=2,8=2,9=2,10=2,28=1/1;
 7//1,2,3,16;
 1/14=-1,18=20,19=15,26=3/3(2);
 2/9=110/2;
 99//99;
 2/9=110/2;
 3/5=1,6=6,7=1,11=2,16=1,25=1,30=1,71=1,74=-5/1,2,3;
 4/5=5,16=3,69=1/1;
 5/5=2,38=5/2;
 7//1,2,3,16;
 1/14=-1,18=20,19=15,26=3/3(-5);
 2/9=110/2;
 6/7=2,8=2,9=2,10=2,19=2,28=1/1;
 99/9=1/99;
 Leave Link    1 at Thu Mar 19 18:44:34 2026, MaxMem=   536870912 cpu:         0.0
 (Enter C:\G09W\l101.exe)
 ---------
 acetamide
 ---------
 Symbolic Z-matrix:
 Charge =  0 Multiplicity = 1
 C                    -1.06909  -0.28856  -0.00371 
 C                     0.16812   0.52142  -0.26703 
 N                     1.31553   0.03516   0.28188 
 O                     0.16701   1.55392  -0.92633 
 H                    -1.45478  -0.6712   -0.95229 
 H                    -0.86279  -1.13412   0.65837 
 H                    -1.81939   0.34903   0.47151 
 H                     2.17236   0.52766   0.06412 
 H                     1.38304  -0.89331   0.67348 
 
 NAtoms=      9 NQM=        9 NQMF=       0 NMMI=      0 NMMIF=      0
                NMic=       0 NMicF=      0.
                    Isotopes and Nuclear Properties:
 (Nuclear quadrupole moments (NQMom) in fm**2, nuclear magnetic moments (NMagM)
  in nuclear magnetons)

  Atom         1           2           3           4           5           6           7           8           9
 IAtWgt=          12          12          14          16           1           1           1           1           1
 AtmWgt=  12.0000000  12.0000000  14.0030740  15.9949146   1.0078250   1.0078250   1.0078250   1.0078250   1.0078250
 NucSpn=           0           0           2           0           1           1           1           1           1
 AtZEff=   0.0000000   0.0000000   0.0000000   0.0000000   0.0000000   0.0000000   0.0000000   0.0000000   0.0000000
 NQMom=    0.0000000   0.0000000   2.0440000   0.0000000   0.0000000   0.0000000   0.0000000   0.0000000   0.0000000
 NMagM=    0.0000000   0.0000000   0.4037610   0.0000000   2.7928460   2.7928460   2.7928460   2.7928460   2.7928460
 AtZNuc=   6.0000000   6.0000000   7.0000000   8.0000000   1.0000000   1.0000000   1.0000000   1.0000000   1.0000000
 Leave Link  101 at Thu Mar 19 18:44:35 2026, MaxMem=   536870912 cpu:         0.0
 (Enter C:\G09W\l103.exe)

 GradGradGradGradGradGradGradGradGradGradGradGradGradGradGradGradGradGrad
 Berny optimization.
 Initialization pass.
                           ----------------------------
                           !    Initial Parameters    !
                           ! (Angstroms and Degrees)  !
 --------------------------                            --------------------------
 ! Name  Definition              Value          Derivative Info.                !
 --------------------------------------------------------------------------------
 ! R1    R(1,2)                  1.502          estimate D2E/DX2                !
 ! R2    R(1,5)                  1.0932         estimate D2E/DX2                !
 ! R3    R(1,6)                  1.0936         estimate D2E/DX2                !
 ! R4    R(1,7)                  1.0933         estimate D2E/DX2                !
 ! R5    R(2,3)                  1.3617         estimate D2E/DX2                !
 ! R6    R(2,4)                  1.225          estimate D2E/DX2                !
 ! R7    R(3,8)                  1.012          estimate D2E/DX2                !
 ! R8    R(3,9)                  1.0099         estimate D2E/DX2                !
 ! A1    A(2,1,5)              109.1024         estimate D2E/DX2                !
 ! A2    A(2,1,6)              111.5748         estimate D2E/DX2                !
 ! A3    A(2,1,7)              109.0865         estimate D2E/DX2                !
 ! A4    A(5,1,6)              108.7393         estimate D2E/DX2                !
 ! A5    A(5,1,7)              109.8272         estimate D2E/DX2                !
 ! A6    A(6,1,7)              108.495          estimate D2E/DX2                !
 ! A7    A(1,2,3)              115.5197         estimate D2E/DX2                !
 ! A8    A(1,2,4)              123.2367         estimate D2E/DX2                !
 ! A9    A(3,2,4)              121.2435         estimate D2E/DX2                !
 ! A10   A(2,3,8)              116.9295         estimate D2E/DX2                !
 ! A11   A(2,3,9)              122.7461         estimate D2E/DX2                !
 ! A12   A(8,3,9)              118.3101         estimate D2E/DX2                !
 ! D1    D(5,1,2,3)           -116.5454         estimate D2E/DX2                !
 ! D2    D(5,1,2,4)             63.5792         estimate D2E/DX2                !
 ! D3    D(6,1,2,3)              3.623          estimate D2E/DX2                !
 ! D4    D(6,1,2,4)           -176.2524         estimate D2E/DX2                !
 ! D5    D(7,1,2,3)            123.4766         estimate D2E/DX2                !
 ! D6    D(7,1,2,4)            -56.3987         estimate D2E/DX2                !
 ! D7    D(1,2,3,8)            175.8205         estimate D2E/DX2                !
 ! D8    D(1,2,3,9)             12.2593         estimate D2E/DX2                !
 ! D9    D(4,2,3,8)             -4.3014         estimate D2E/DX2                !
 ! D10   D(4,2,3,9)           -167.8627         estimate D2E/DX2                !
 --------------------------------------------------------------------------------
 Trust Radius=3.00D-01 FncErr=1.00D-07 GrdErr=1.00D-06
 Number of steps in this run=     40 maximum allowed number of steps=    100.
 GradGradGradGradGradGradGradGradGradGradGradGradGradGradGradGradGradGrad

 Leave Link  103 at Thu Mar 19 18:44:35 2026, MaxMem=   536870912 cpu:         0.0
 (Enter C:\G09W\l202.exe)
                          Input orientation:                          
 ---------------------------------------------------------------------
 Center     Atomic      Atomic             Coordinates (Angstroms)
 Number     Number       Type             X           Y           Z
 ---------------------------------------------------------------------
      1          6           0       -1.069089   -0.288555   -0.003710
      2          6           0        0.168119    0.521423   -0.267029
      3          7           0        1.315529    0.035160    0.281884
      4          8           0        0.167005    1.553918   -0.926329
      5          1           0       -1.454782   -0.671203   -0.952291
      6          1           0       -0.862793   -1.134120    0.658370
      7          1           0       -1.819387    0.349031    0.471513
      8          1           0        2.172356    0.527656    0.064117
      9          1           0        1.383043   -0.893310    0.673476
 ---------------------------------------------------------------------
                    Distance matrix (angstroms):
                    1          2          3          4          5
     1  C    0.000000
     2  C    1.502027   0.000000
     3  N    2.423377   1.361729   0.000000
     4  O    2.402886   1.225040   2.255108   0.000000
     5  H    1.093153   2.127381   3.113962   2.753549   0.000000
     6  H    1.093567   2.158695   2.500809   3.285925   1.777350
     7  H    1.093298   2.127285   3.156291   2.711359   1.789143
     8  H    3.343317   2.031419   1.011992   2.460819   3.953034
     9  H    2.614816   2.088554   1.009930   3.166552   3.278064
                    6          7          8          9
     6  H    0.000000
     7  H    1.774746   0.000000
     8  H    3.510949   4.016452   0.000000
     9  H    2.258760   3.440895   1.735937   0.000000
 Stoichiometry    C2H5NO
 Framework group  C1[X(C2H5NO)]
 Deg. of freedom    21
 Full point group                 C1      NOp   1
 Largest Abelian subgroup         C1      NOp   1
 Largest concise Abelian subgroup C1      NOp   1
                         Standard orientation:                         
 ---------------------------------------------------------------------
 Center     Atomic      Atomic             Coordinates (Angstroms)
 Number     Number       Type             X           Y           Z
 ---------------------------------------------------------------------
      1          6           0        1.366817   -0.293074   -0.000448
      2          6           0       -0.070485    0.143074   -0.005314
      3          7           0       -0.988573   -0.862329   -0.029498
      4          8           0       -0.415553    1.318425    0.008862
      5          1           0        1.835414    0.029564    0.932990
      6          1           0        1.457547   -1.379830   -0.081799
      7          1           0        1.881551    0.162531   -0.850608
      8          1           0       -1.962668   -0.595081    0.032507
      9          1           0       -0.745400   -1.828289    0.137075
 ---------------------------------------------------------------------
 Rotational constants (GHZ):     10.8625036      9.3444671      5.1929649
 Leave Link  202 at Thu Mar 19 18:44:35 2026, MaxMem=   536870912 cpu:         0.0
 (Enter C:\G09W\l301.exe)
 Standard basis: 6-31G(d) (6D, 7F)
 Ernie: Thresh=  0.10000D-02 Tol=  0.10000D-05 Strict=F.
 There are    70 symmetry adapted cartesian basis functions of A   symmetry.
 There are    70 symmetry adapted basis functions of A   symmetry.
    70 basis functions,   132 primitive gaussians,    70 cartesian basis functions
    16 alpha electrons       16 beta electrons
       nuclear repulsion energy       121.8162114725 Hartrees.
 IExCor=  402 DFT=T Ex+Corr=B3LYP ExCW=0 ScaHFX=  0.200000
 ScaDFX=  0.800000  0.720000  1.000000  0.810000 ScalE2=  1.000000  1.000000
 IRadAn=      0 IRanWt=     -1 IRanGd=            0 ICorTp=0 IEmpDi=  4
 NAtoms=    9 NActive=    9 NUniq=    9 SFac= 1.00D+00 NAtFMM=   60 NAOKFM=F Big=F
 Integral buffers will be    131072 words long.
 Raffenetti 2 integral format.
 Two-electron integral symmetry is turned on.
 Leave Link  301 at Thu Mar 19 18:44:35 2026, MaxMem=   536870912 cpu:         0.0
 (Enter C:\G09W\l302.exe)
 NPDir=0 NMtPBC=     1 NCelOv=     1 NCel=       1 NClECP=     1 NCelD=      1
         NCelK=      1 NCelE2=     1 NClLst=     1 CellRange=     0.0.
 One-electron integrals computed using PRISM.
 NBasis=    70 RedAO= T EigKep=  3.91D-03  NBF=    70
 NBsUse=    70 1.00D-06 EigRej= -1.00D+00 NBFU=    70
 Precomputing XC quadrature grid using
 IXCGrd= 4 IRadAn=           0 IRanWt=          -1 IRanGd=           0 AccXCQ= 0.00D+00.
 Generated NRdTot=       0 NPtTot=           0 NUsed=           0 NTot=          32
 NSgBfM=    70    70    70    70    70 MxSgAt=     9 MxSgA2=     9.
 Leave Link  302 at Thu Mar 19 18:44:36 2026, MaxMem=   536870912 cpu:         0.0
 (Enter C:\G09W\l303.exe)
 DipDrv:  MaxL=1.
 Leave Link  303 at Thu Mar 19 18:44:36 2026, MaxMem=   536870912 cpu:         0.0
 (Enter C:\G09W\l401.exe)
 ExpMin= 1.61D-01 ExpMax= 5.48D+03 ExpMxC= 8.25D+02 IAcc=1 IRadAn=         1 AccDes= 0.00D+00
 Harris functional with IExCor=  402 and IRadAn=       1 diagonalized for initial guess.
 HarFok:  IExCor=  402 AccDes= 0.00D+00 IRadAn=         1 IDoV= 1 UseB2=F ITyADJ=14
 ICtDFT=  3500011 ScaDFX=  1.000000  1.000000  1.000000  1.000000
 FoFCou: FMM=F IPFlag=           0 FMFlag=      100000 FMFlg1=           0
         NFxFlg=           0 DoJE=T BraDBF=F KetDBF=T FulRan=T
         wScrn=  0.000000 ICntrl=     500 IOpCl=  0 I1Cent=   200000004 NGrid=           0
         NMat0=    1 NMatS0=      1 NMatT0=    0 NMatD0=    1 NMtDS0=    0 NMtDT0=    0
 Petite list used in FoFCou.
 Harris En= -209.249642793135    
 JPrj=0 DoOrth=F DoCkMO=F.
 Leave Link  401 at Thu Mar 19 18:44:36 2026, MaxMem=   536870912 cpu:         0.0
 (Enter C:\G09W\l502.exe)
 Closed shell SCF:
 Using DIIS extrapolation, IDIIS=  1040.
 Integral symmetry usage will be decided dynamically.
 Keep R1 ints in memory in canonical form, NReq=4012979.
 IVT=       34204 IEndB=       34204 NGot=   536870912 MDV=   533747854
 LenX=   533747854 LenY=   533742513
 Requested convergence on RMS density matrix=1.00D-08 within 128 cycles.
 Requested convergence on MAX density matrix=1.00D-06.
 Requested convergence on             energy=1.00D-06.
 No special actions if energy rises.
 FoFCou: FMM=F IPFlag=           0 FMFlag=           0 FMFlg1=           0
         NFxFlg=           0 DoJE=F BraDBF=F KetDBF=F FulRan=T
         wScrn=  0.000000 ICntrl=     600 IOpCl=  0 I1Cent=           0 NGrid=           0
         NMat0=    1 NMatS0=   2485 NMatT0=    0 NMatD0=    1 NMtDS0=    0 NMtDT0=    0
 Symmetry not used in FoFCou.
 Integral accuracy reduced to 1.0D-05 until final iterations.

 Cycle   1  Pass 0  IDiag  1:
 E= -209.047691578785    
 DIIS: error= 4.13D-02 at cycle   1 NSaved=   1.
 NSaved= 1 IEnMin= 1 EnMin= -209.047691578785     IErMin= 1 ErrMin= 4.13D-02
 ErrMax= 4.13D-02  0.00D+00 EMaxC= 1.00D-01 BMatC= 1.88D-01 BMatP= 1.88D-01
 IDIUse=3 WtCom= 5.87D-01 WtEn= 4.13D-01
 Coeff-Com:  0.100D+01
 Coeff-En:   0.100D+01
 Coeff:      0.100D+01
 Gap=     0.254 Goal=   None    Shift=    0.000
 GapD=    0.254 DampG=1.000 DampE=0.500 DampFc=0.5000 IDamp=-1.
 Damping current iteration by 5.00D-01
 RMSDP=1.73D-02 MaxDP=2.92D-01              OVMax= 3.11D-01

 Cycle   2  Pass 0  IDiag  1:
 E= -209.091055331042     Delta-E=       -0.043363752257 Rises=F Damp=T
 DIIS: error= 1.33D-02 at cycle   2 NSaved=   2.
 NSaved= 2 IEnMin= 2 EnMin= -209.091055331042     IErMin= 2 ErrMin= 1.33D-02
 ErrMax= 1.33D-02  0.00D+00 EMaxC= 1.00D-01 BMatC= 2.79D-02 BMatP= 1.88D-01
 IDIUse=3 WtCom= 8.67D-01 WtEn= 1.33D-01
 Coeff-Com:  0.225D+00 0.775D+00
 Coeff-En:   0.353D+00 0.647D+00
 Coeff:      0.242D+00 0.758D+00
 Gap=     0.319 Goal=   None    Shift=    0.000
 RMSDP=5.32D-03 MaxDP=1.21D-01 DE=-4.34D-02 OVMax= 1.84D-01

 Cycle   3  Pass 0  IDiag  1:
 E= -209.186709442426     Delta-E=       -0.095654111384 Rises=F Damp=F
 DIIS: error= 1.43D-02 at cycle   3 NSaved=   3.
 NSaved= 3 IEnMin= 3 EnMin= -209.186709442426     IErMin= 2 ErrMin= 1.33D-02
 ErrMax= 1.43D-02  0.00D+00 EMaxC= 1.00D-01 BMatC= 2.90D-02 BMatP= 2.79D-02
 IDIUse=3 WtCom= 8.57D-01 WtEn= 1.43D-01
 Coeff-Com:  0.990D-01 0.499D+00 0.402D+00
 Coeff-En:   0.000D+00 0.000D+00 0.100D+01
 Coeff:      0.848D-01 0.427D+00 0.488D+00
 Gap=     0.290 Goal=   None    Shift=    0.000
 RMSDP=2.72D-03 MaxDP=4.32D-02 DE=-9.57D-02 OVMax= 8.43D-02

 Cycle   4  Pass 0  IDiag  1:
 E= -209.208331326824     Delta-E=       -0.021621884398 Rises=F Damp=F
 DIIS: error= 5.58D-03 at cycle   4 NSaved=   4.
 NSaved= 4 IEnMin= 4 EnMin= -209.208331326824     IErMin= 4 ErrMin= 5.58D-03
 ErrMax= 5.58D-03  0.00D+00 EMaxC= 1.00D-01 BMatC= 3.94D-03 BMatP= 2.79D-02
 IDIUse=3 WtCom= 9.44D-01 WtEn= 5.58D-02
 Coeff-Com:  0.129D-01 0.322D-01 0.269D+00 0.686D+00
 Coeff-En:   0.000D+00 0.000D+00 0.134D+00 0.866D+00
 Coeff:      0.122D-01 0.304D-01 0.262D+00 0.696D+00
 Gap=     0.275 Goal=   None    Shift=    0.000
 RMSDP=8.42D-04 MaxDP=1.40D-02 DE=-2.16D-02 OVMax= 2.52D-02

 Cycle   5  Pass 0  IDiag  1:
 E= -209.211333315870     Delta-E=       -0.003001989045 Rises=F Damp=F
 DIIS: error= 1.07D-03 at cycle   5 NSaved=   5.
 NSaved= 5 IEnMin= 5 EnMin= -209.211333315870     IErMin= 5 ErrMin= 1.07D-03
 ErrMax= 1.07D-03  0.00D+00 EMaxC= 1.00D-01 BMatC= 1.54D-04 BMatP= 3.94D-03
 IDIUse=3 WtCom= 9.89D-01 WtEn= 1.07D-02
 Coeff-Com:  0.258D-02-0.697D-02 0.125D+00 0.388D+00 0.492D+00
 Coeff-En:   0.000D+00 0.000D+00 0.000D+00 0.000D+00 0.100D+01
 Coeff:      0.255D-02-0.689D-02 0.123D+00 0.384D+00 0.498D+00
 Gap=     0.275 Goal=   None    Shift=    0.000
 RMSDP=1.73D-04 MaxDP=3.33D-03 DE=-3.00D-03 OVMax= 4.76D-03

 Cycle   6  Pass 0  IDiag  1:
 E= -209.211468213099     Delta-E=       -0.000134897229 Rises=F Damp=F
 DIIS: error= 1.86D-04 at cycle   6 NSaved=   6.
 NSaved= 6 IEnMin= 6 EnMin= -209.211468213099     IErMin= 6 ErrMin= 1.86D-04
 ErrMax= 1.86D-04  0.00D+00 EMaxC= 1.00D-01 BMatC= 4.79D-06 BMatP= 1.54D-04
 IDIUse=3 WtCom= 9.98D-01 WtEn= 1.86D-03
 Coeff-Com:  0.495D-03-0.417D-02 0.224D-01 0.655D-01 0.176D+00 0.740D+00
 Coeff-En:   0.000D+00 0.000D+00 0.000D+00 0.000D+00 0.000D+00 0.100D+01
 Coeff:      0.494D-03-0.417D-02 0.223D-01 0.654D-01 0.176D+00 0.740D+00
 Gap=     0.276 Goal=   None    Shift=    0.000
 RMSDP=3.21D-05 MaxDP=5.16D-04 DE=-1.35D-04 OVMax= 6.75D-04

 Cycle   7  Pass 0  IDiag  1:
 E= -209.211472375330     Delta-E=       -0.000004162231 Rises=F Damp=F
 DIIS: error= 2.77D-05 at cycle   7 NSaved=   7.
 NSaved= 7 IEnMin= 7 EnMin= -209.211472375330     IErMin= 7 ErrMin= 2.77D-05
 ErrMax= 2.77D-05  0.00D+00 EMaxC= 1.00D-01 BMatC= 1.39D-07 BMatP= 4.79D-06
 IDIUse=1 WtCom= 1.00D+00 WtEn= 0.00D+00
 Coeff-Com:  0.175D-03-0.129D-02 0.450D-02 0.108D-01 0.528D-01 0.273D+00
 Coeff-Com:  0.660D+00
 Coeff:      0.175D-03-0.129D-02 0.450D-02 0.108D-01 0.528D-01 0.273D+00
 Coeff:      0.660D+00
 Gap=     0.276 Goal=   None    Shift=    0.000
 RMSDP=7.81D-06 MaxDP=1.00D-04 DE=-4.16D-06 OVMax= 1.21D-04

 Initial convergence to 1.0D-05 achieved.  Increase integral accuracy.
 Cycle   8  Pass 1  IDiag  1:
 E= -209.211465983433     Delta-E=        0.000006391897 Rises=F Damp=F
 DIIS: error= 1.02D-05 at cycle   1 NSaved=   1.
 NSaved= 1 IEnMin= 1 EnMin= -209.211465983433     IErMin= 1 ErrMin= 1.02D-05
 ErrMax= 1.02D-05  0.00D+00 EMaxC= 1.00D-01 BMatC= 1.49D-08 BMatP= 1.49D-08
 IDIUse=1 WtCom= 1.00D+00 WtEn= 0.00D+00
 Coeff-Com:  0.100D+01
 Coeff:      0.100D+01
 Gap=     0.276 Goal=   None    Shift=    0.000
 RMSDP=7.81D-06 MaxDP=1.00D-04 DE= 6.39D-06 OVMax= 5.91D-05

 Cycle   9  Pass 1  IDiag  1:
 E= -209.211465984895     Delta-E=       -0.000000001462 Rises=F Damp=F
 DIIS: error= 1.03D-05 at cycle   2 NSaved=   2.
 NSaved= 2 IEnMin= 2 EnMin= -209.211465984895     IErMin= 1 ErrMin= 1.02D-05
 ErrMax= 1.03D-05  0.00D+00 EMaxC= 1.00D-01 BMatC= 1.79D-08 BMatP= 1.49D-08
 IDIUse=1 WtCom= 1.00D+00 WtEn= 0.00D+00
 Coeff-Com:  0.526D+00 0.474D+00
 Coeff:      0.526D+00 0.474D+00
 Gap=     0.276 Goal=   None    Shift=    0.000
 RMSDP=1.83D-06 MaxDP=2.72D-05 DE=-1.46D-09 OVMax= 4.72D-05

 Cycle  10  Pass 1  IDiag  1:
 E= -209.211465999086     Delta-E=       -0.000000014191 Rises=F Damp=F
 DIIS: error= 3.89D-06 at cycle   3 NSaved=   3.
 NSaved= 3 IEnMin= 3 EnMin= -209.211465999086     IErMin= 3 ErrMin= 3.89D-06
 ErrMax= 3.89D-06  0.00D+00 EMaxC= 1.00D-01 BMatC= 1.97D-09 BMatP= 1.49D-08
 IDIUse=1 WtCom= 1.00D+00 WtEn= 0.00D+00
 Coeff-Com:  0.195D+00 0.268D+00 0.536D+00
 Coeff:      0.195D+00 0.268D+00 0.536D+00
 Gap=     0.276 Goal=   None    Shift=    0.000
 RMSDP=9.25D-07 MaxDP=1.47D-05 DE=-1.42D-08 OVMax= 2.37D-05

 Cycle  11  Pass 1  IDiag  1:
 E= -209.211466000222     Delta-E=       -0.000000001136 Rises=F Damp=F
 DIIS: error= 2.02D-06 at cycle   4 NSaved=   4.
 NSaved= 4 IEnMin= 4 EnMin= -209.211466000222     IErMin= 4 ErrMin= 2.02D-06
 ErrMax= 2.02D-06  0.00D+00 EMaxC= 1.00D-01 BMatC= 4.91D-10 BMatP= 1.97D-09
 IDIUse=1 WtCom= 1.00D+00 WtEn= 0.00D+00
 Coeff-Com: -0.961D-02 0.511D-01 0.362D+00 0.597D+00
 Coeff:     -0.961D-02 0.511D-01 0.362D+00 0.597D+00
 Gap=     0.276 Goal=   None    Shift=    0.000
 RMSDP=3.09D-07 MaxDP=5.75D-06 DE=-1.14D-09 OVMax= 8.56D-06

 Cycle  12  Pass 1  IDiag  1:
 E= -209.211466000622     Delta-E=       -0.000000000400 Rises=F Damp=F
 DIIS: error= 2.74D-07 at cycle   5 NSaved=   5.
 NSaved= 5 IEnMin= 5 EnMin= -209.211466000622     IErMin= 5 ErrMin= 2.74D-07
 ErrMax= 2.74D-07  0.00D+00 EMaxC= 1.00D-01 BMatC= 6.83D-12 BMatP= 4.91D-10
 IDIUse=1 WtCom= 1.00D+00 WtEn= 0.00D+00
 Coeff-Com: -0.699D-02 0.190D-01 0.150D+00 0.273D+00 0.565D+00
 Coeff:     -0.699D-02 0.190D-01 0.150D+00 0.273D+00 0.565D+00
 Gap=     0.276 Goal=   None    Shift=    0.000
 RMSDP=3.76D-08 MaxDP=5.41D-07 DE=-4.00D-10 OVMax= 8.63D-07

 Cycle  13  Pass 1  IDiag  1:
 E= -209.211466000626     Delta-E=       -0.000000000004 Rises=F Damp=F
 DIIS: error= 8.82D-08 at cycle   6 NSaved=   6.
 NSaved= 6 IEnMin= 6 EnMin= -209.211466000626     IErMin= 6 ErrMin= 8.82D-08
 ErrMax= 8.82D-08  0.00D+00 EMaxC= 1.00D-01 BMatC= 8.72D-13 BMatP= 6.83D-12
 IDIUse=1 WtCom= 1.00D+00 WtEn= 0.00D+00
 Coeff-Com: -0.274D-02 0.331D-02 0.296D-01 0.681D-01 0.288D+00 0.614D+00
 Coeff:     -0.274D-02 0.331D-02 0.296D-01 0.681D-01 0.288D+00 0.614D+00
 Gap=     0.276 Goal=   None    Shift=    0.000
 RMSDP=1.31D-08 MaxDP=2.17D-07 DE=-4.32D-12 OVMax= 2.43D-07

 Cycle  14  Pass 1  IDiag  1:
 E= -209.211466000626     Delta-E=        0.000000000000 Rises=F Damp=F
 DIIS: error= 1.72D-08 at cycle   7 NSaved=   7.
 NSaved= 7 IEnMin= 7 EnMin= -209.211466000626     IErMin= 7 ErrMin= 1.72D-08
 ErrMax= 1.72D-08  0.00D+00 EMaxC= 1.00D-01 BMatC= 3.50D-14 BMatP= 8.72D-13
 IDIUse=1 WtCom= 1.00D+00 WtEn= 0.00D+00
 Coeff-Com: -0.439D-03 0.134D-03 0.316D-03 0.835D-02 0.696D-01 0.214D+00
 Coeff-Com:  0.708D+00
 Coeff:     -0.439D-03 0.134D-03 0.316D-03 0.835D-02 0.696D-01 0.214D+00
 Coeff:      0.708D+00
 Gap=     0.276 Goal=   None    Shift=    0.000
 RMSDP=3.85D-09 MaxDP=5.59D-08 DE=-3.41D-13 OVMax= 6.02D-08

 SCF Done:  E(RB3LYP) =  -209.211466001     A.U. after   14 cycles
            NFock= 14  Conv=0.38D-08     -V/T= 2.0090
 KE= 2.073382539856D+02 PE=-7.324019283747D+02 EE= 1.940359969159D+02
 Leave Link  502 at Thu Mar 19 18:44:41 2026, MaxMem=   536870912 cpu:         5.0
 (Enter C:\G09W\l601.exe)
 Copying SCF densities to generalized density rwf, IOpCl= 0 IROHF=0.

 **********************************************************************

            Population analysis using the SCF density.

 **********************************************************************

 Orbital symmetries:
       Occupied  (A) (A) (A) (A) (A) (A) (A) (A) (A) (A) (A) (A)
                 (A) (A) (A) (A)
       Virtual   (A) (A) (A) (A) (A) (A) (A) (A) (A) (A) (A) (A)
                 (A) (A) (A) (A) (A) (A) (A) (A) (A) (A) (A) (A)
                 (A) (A) (A) (A) (A) (A) (A) (A) (A) (A) (A) (A)
                 (A) (A) (A) (A) (A) (A) (A) (A) (A) (A) (A) (A)
                 (A) (A) (A) (A) (A) (A)
 The electronic state is 1-A.
 Alpha  occ. eigenvalues --  -19.10063 -14.35565 -10.28442 -10.19073  -1.02205
 Alpha  occ. eigenvalues --   -0.90023  -0.74063  -0.58683  -0.53792  -0.46567
 Alpha  occ. eigenvalues --   -0.44658  -0.40057  -0.39058  -0.36264  -0.26278
 Alpha  occ. eigenvalues --   -0.24159
 Alpha virt. eigenvalues --    0.03409   0.06899   0.12136   0.13165   0.16791
 Alpha virt. eigenvalues --    0.18208   0.23393   0.31263   0.39582   0.53158
 Alpha virt. eigenvalues --    0.53847   0.58291   0.63495   0.65456   0.67131
 Alpha virt. eigenvalues --    0.69795   0.72656   0.77230   0.84827   0.87528
 Alpha virt. eigenvalues --    0.88354   0.89361   0.92204   0.94923   1.04648
 Alpha virt. eigenvalues --    1.10159   1.20379   1.24004   1.34982   1.36126
 Alpha virt. eigenvalues --    1.44415   1.61855   1.72080   1.78227   1.82489
 Alpha virt. eigenvalues --    1.83473   1.87583   1.97103   2.03251   2.14057
 Alpha virt. eigenvalues --    2.20840   2.22896   2.25685   2.41628   2.44354
 Alpha virt. eigenvalues --    2.59388   2.65426   2.81442   2.97505   3.07299
 Alpha virt. eigenvalues --    3.79008   4.01513   4.16352   4.47101
          Condensed to atoms (all electrons):
               1          2          3          4          5          6
     1  C    5.343167   0.328056  -0.131440  -0.088031   0.364849   0.330064
     2  C    0.328056   4.270113   0.284470   0.619318  -0.021197  -0.020492
     3  N   -0.131440   0.284470   7.093023  -0.096971   0.001604   0.005807
     4  O   -0.088031   0.619318  -0.096971   8.050392  -0.000092   0.003658
     5  H    0.364849  -0.021197   0.001604  -0.000092   0.515424  -0.026888
     6  H    0.330064  -0.020492   0.005807   0.003658  -0.026888   0.595130
     7  H    0.365199  -0.020152   0.002468   0.000319  -0.019619  -0.026610
     8  H    0.009556  -0.007175   0.285672   0.007855  -0.000249  -0.000268
     9  H    0.004261  -0.007561   0.289138   0.003823  -0.000144   0.000452
               7          8          9
     1  C    0.365199   0.009556   0.004261
     2  C   -0.020152  -0.007175  -0.007561
     3  N    0.002468   0.285672   0.289138
     4  O    0.000319   0.007855   0.003823
     5  H   -0.019619  -0.000249  -0.000144
     6  H   -0.026610  -0.000268   0.000452
     7  H    0.508972  -0.000211  -0.000065
     8  H   -0.000211   0.385850  -0.020571
     9  H   -0.000065  -0.020571   0.400273
 Mulliken charges:
               1
     1  C   -0.525680
     2  C    0.574622
     3  N   -0.733770
     4  O   -0.500269
     5  H    0.186313
     6  H    0.139147
     7  H    0.189701
     8  H    0.339542
     9  H    0.330395
 Sum of Mulliken charges =   0.00000
 Mulliken charges with hydrogens summed into heavy atoms:
               1
     1  C   -0.010519
     2  C    0.574622
     3  N   -0.063833
     4  O   -0.500269
 Electronic spatial extent (au):  <R**2>=            266.1202
 Charge=              0.0000 electrons
 Dipole moment (field-independent basis, Debye):
    X=              0.2379    Y=             -3.7086    Z=              0.3602  Tot=              3.7337
 Quadrupole moment (field-independent basis, Debye-Ang):
   XX=            -20.3490   YY=            -25.4893   ZZ=            -24.3554
   XY=              2.4899   XZ=             -0.4136   YZ=             -0.6849
 Traceless Quadrupole moment (field-independent basis, Debye-Ang):
   XX=              3.0489   YY=             -2.0914   ZZ=             -0.9575
   XY=              2.4899   XZ=             -0.4136   YZ=             -0.6849
 Octapole moment (field-independent basis, Debye-Ang**2):
  XXX=            -11.1200  YYY=            -11.3229  ZZZ=              0.4999  XYY=             -1.5781
  XXY=             -1.3253  XXZ=              0.5028  XZZ=              0.7947  YZZ=              2.0445
  YYZ=              0.9574  XYZ=              0.5283
 Hexadecapole moment (field-independent basis, Debye-Ang**3):
 XXXX=           -152.2125 YYYY=           -119.2643 ZZZZ=            -28.1150 XXXY=              8.0805
 XXXZ=             -1.1204 YYYX=              6.8543 YYYZ=             -1.9532 ZZZX=             -0.1168
 ZZZY=             -0.5494 XXYY=            -49.3509 XXZZ=            -32.1099 YYZZ=            -27.0903
 XXYZ=             -0.8914 YYXZ=             -1.1019 ZZXY=              0.1768
 N-N= 1.218162114725D+02 E-N=-7.324019305198D+02  KE= 2.073382539856D+02
 No NMR shielding tensors so no spin-rotation constants.
 Leave Link  601 at Thu Mar 19 18:44:41 2026, MaxMem=   536870912 cpu:         0.0
 (Enter C:\G09W\l701.exe)
 Compute integral first derivatives.
 ... and contract with generalized density number  0.
 Leave Link  701 at Thu Mar 19 18:44:42 2026, MaxMem=   536870912 cpu:         0.0
 (Enter C:\G09W\l702.exe)
 L702 exits ... SP integral derivatives will be done elsewhere.
 Leave Link  702 at Thu Mar 19 18:44:42 2026, MaxMem=   536870912 cpu:         0.0
 (Enter C:\G09W\l703.exe)
 Compute integral first derivatives, UseDBF=F ICtDFT=           0.
 Integral derivatives from FoFJK, PRISM(SPDF).
 Calling FoFJK, ICntrl=      2127 FMM=F ISym2X=0 I1Cent= 0 IOpClX= 0 NMat=1 NMatS=1 NMatT=0.
 FoFJK:  IHMeth= 1 ICntrl=    2127 DoSepK=F KAlg= 0 I1Cent=   0 FoldK=F
 IRaf=         0 NMat=   1 IRICut=       1 DoRegI=T DoRafI=F ISym2E= 0.
 FoFCou: FMM=F IPFlag=           0 FMFlag=      100000 FMFlg1=         800
         NFxFlg=           0 DoJE=F BraDBF=F KetDBF=F FulRan=T
         wScrn=  0.000000 ICntrl=    2127 IOpCl=  0 I1Cent=           0 NGrid=           0
         NMat0=    1 NMatS0=      1 NMatT0=    0 NMatD0=    1 NMtDS0=    0 NMtDT0=    0
 Symmetry not used in FoFCou.
 Leave Link  703 at Thu Mar 19 18:44:43 2026, MaxMem=   536870912 cpu:         1.0
 (Enter C:\G09W\l716.exe)
 Dipole        = 9.35893428D-02-1.45908037D+00 1.41729483D-01
 ***** Axes restored to original set *****
 -------------------------------------------------------------------
 Center     Atomic                   Forces (Hartrees/Bohr)
 Number     Number              X              Y              Z
 -------------------------------------------------------------------
      1        6          -0.002383336   -0.006556870    0.004790955
      2        6           0.005229448    0.011463527   -0.009081572
      3        7           0.007750075   -0.003361592    0.004225599
      4        8          -0.003048452   -0.001213292    0.002073059
      5        1          -0.002880815    0.001468417   -0.000047988
      6        1          -0.002623867   -0.001711698    0.000512839
      7        1          -0.001717644   -0.000212057   -0.002633599
      8        1          -0.000402211   -0.001497631   -0.000084943
      9        1           0.000076803    0.001621197    0.000245649
 -------------------------------------------------------------------
 Cartesian Forces:  Max     0.011463527 RMS     0.004094783
 Leave Link  716 at Thu Mar 19 18:44:43 2026, MaxMem=   536870912 cpu:         0.0
 (Enter C:\G09W\l103.exe)

 GradGradGradGradGradGradGradGradGradGradGradGradGradGradGradGradGradGrad
 Berny optimization.
 FormGI is forming the generalized inverse of G from B-inverse, IUseBI=4.
 Internal  Forces:  Max     0.012149598 RMS     0.003271722
 Search for a local minimum.
 Step number   1 out of a maximum of   40
 All quantities printed in internal units (Hartrees-Bohrs-Radians)
 RMS Force = .32717D-02 SwitMx=.10000D-02 MixMth= 1
 Mixed Optimization -- RFO/linear search
 Second derivative matrix not updated -- first step.
 ITU=  0
     Eigenvalues ---    0.00739   0.01307   0.02198   0.02474   0.07313
     Eigenvalues ---    0.07549   0.16000   0.16000   0.16000   0.16000
     Eigenvalues ---    0.16000   0.25000   0.25000   0.32166   0.34404
     Eigenvalues ---    0.34434   0.34451   0.45641   0.45984   0.52599
     Eigenvalues ---    0.93185
 RFO step:  Lambda=-1.39188411D-03 EMin= 7.39135071D-03
 Linear search not attempted -- first point.
 Iteration  1 RMS(Cart)=  0.02796328 RMS(Int)=  0.00047924
 Iteration  2 RMS(Cart)=  0.00046581 RMS(Int)=  0.00019102
 Iteration  3 RMS(Cart)=  0.00000015 RMS(Int)=  0.00019102
 ITry= 1 IFail=0 DXMaxC= 7.56D-02 DCOld= 1.00D+10 DXMaxT= 3.00D-01 DXLimC= 3.00D+00 Rises=F
 Variable       Old X    -DE/DX   Delta X   Delta X   Delta X     New X
                                 (Linear)    (Quad)   (Total)
    R1        2.83842   0.01215   0.00000   0.03761   0.03761   2.87603
    R2        2.06576   0.00054   0.00000   0.00157   0.00157   2.06733
    R3        2.06654   0.00114   0.00000   0.00329   0.00329   2.06983
    R4        2.06603  -0.00009   0.00000  -0.00025  -0.00025   2.06578
    R5        2.57330   0.00918   0.00000   0.01742   0.01742   2.59071
    R6        2.31499  -0.00214   0.00000  -0.00229  -0.00229   2.31270
    R7        1.91239  -0.00105   0.00000  -0.00230  -0.00230   1.91009
    R8        1.90849  -0.00139   0.00000  -0.00301  -0.00301   1.90548
    A1        1.90420   0.00066   0.00000   0.00018  -0.00010   1.90410
    A2        1.94735   0.00493   0.00000   0.03878   0.03847   1.98582
    A3        1.90392   0.00012   0.00000  -0.00344  -0.00367   1.90025
    A4        1.89786  -0.00130   0.00000   0.00037   0.00003   1.89789
    A5        1.91685  -0.00345   0.00000  -0.03835  -0.03853   1.87832
    A6        1.89359  -0.00108   0.00000   0.00125   0.00099   1.89459
    A7        2.01620   0.00091   0.00000   0.00359   0.00326   2.01946
    A8        2.15089  -0.00371   0.00000  -0.01479  -0.01510   2.13579
    A9        2.11610   0.00280   0.00000   0.01111   0.01078   2.12687
   A10        2.04080   0.00068   0.00000   0.00434   0.00434   2.04514
   A11        2.14232   0.00007   0.00000   0.00054   0.00053   2.14286
   A12        2.06490  -0.00072   0.00000  -0.00435  -0.00436   2.06055
    D1       -2.03410  -0.00220   0.00000  -0.04508  -0.04498  -2.07908
    D2        1.10967  -0.00152   0.00000   0.00164   0.00142   1.11109
    D3        0.06323  -0.00028   0.00000  -0.02006  -0.01987   0.04336
    D4       -3.07618   0.00040   0.00000   0.02666   0.02654  -3.04965
    D5        2.15507   0.00154   0.00000   0.00352   0.00371   2.15878
    D6       -0.98434   0.00221   0.00000   0.05024   0.05011  -0.93423
    D7        3.06865  -0.00034   0.00000  -0.00610  -0.00588   3.06277
    D8        0.21396  -0.00038   0.00000  -0.00749  -0.00727   0.20670
    D9       -0.07507  -0.00101   0.00000  -0.05184  -0.05206  -0.12714
   D10       -2.92976  -0.00104   0.00000  -0.05323  -0.05345  -2.98321
         Item               Value     Threshold  Converged?
 Maximum Force            0.012150     0.000450     NO 
 RMS     Force            0.003272     0.000300     NO 
 Maximum Displacement     0.075593     0.001800     NO 
 RMS     Displacement     0.027725     0.001200     NO 
 Predicted change in Energy=-7.076931D-04
 Lowest energy point so far.  Saving SCF results.
 GradGradGradGradGradGradGradGradGradGradGradGradGradGradGradGradGradGrad

 Leave Link  103 at Thu Mar 19 18:44:44 2026, MaxMem=   536870912 cpu:         0.0
 (Enter C:\G09W\l202.exe)
                          Input orientation:                          
 ---------------------------------------------------------------------
 Center     Atomic      Atomic             Coordinates (Angstroms)
 Number     Number       Type             X           Y           Z
 ---------------------------------------------------------------------
      1          6           0       -1.071931   -0.299739   -0.001547
      2          6           0        0.181752    0.517348   -0.278884
      3          7           0        1.338313    0.040901    0.282235
      4          8           0        0.155571    1.561532   -0.916656
      5          1           0       -1.481546   -0.659810   -0.949898
      6          1           0       -0.902795   -1.158229    0.657306
      7          1           0       -1.822338    0.348867    0.458023
      8          1           0        2.195539    0.525961    0.055197
      9          1           0        1.407436   -0.876831    0.694225
 ---------------------------------------------------------------------
                    Distance matrix (angstroms):
                    1          2          3          4          5
     1  C    0.000000
     2  C    1.521929   0.000000
     3  N    2.450682   1.370945   0.000000
     4  O    2.410086   1.223829   2.269039   0.000000
     5  H    1.093986   2.145348   3.156065   2.759641   0.000000
     6  H    1.095308   2.204598   2.569271   3.315810   1.779460
     7  H    1.093163   2.141913   3.180481   2.696743   1.765166
     8  H    3.370661   2.041329   1.010775   2.485633   3.992145
     9  H    2.639014   2.095944   1.008339   3.179264   3.331134
                    6          7          8          9
     6  H    0.000000
     7  H    1.776686   0.000000
     8  H    3.577527   4.041901   0.000000
     9  H    2.327599   3.462596   1.731268   0.000000
 Stoichiometry    C2H5NO
 Framework group  C1[X(C2H5NO)]
 Deg. of freedom    21
 Full point group                 C1      NOp   1
 RotChk:  IX=0 Diff= 3.25D-02
 Largest Abelian subgroup         C1      NOp   1
 Largest concise Abelian subgroup C1      NOp   1
                         Standard orientation:                         
 ---------------------------------------------------------------------
 Center     Atomic      Atomic             Coordinates (Angstroms)
 Number     Number       Type             X           Y           Z
 ---------------------------------------------------------------------
      1          6           0        1.369460   -0.331902   -0.001664
      2          6           0       -0.075700    0.145218    0.009984
      3          7           0       -1.027704   -0.840456   -0.030342
      4          8           0       -0.373964    1.332121    0.002344
      5          1           0        1.863356   -0.000031    0.916341
      6          1           0        1.475004   -1.418936   -0.084843
      7          1           0        1.888749    0.133394   -0.843592
      8          1           0       -1.993598   -0.552860    0.047141
      9          1           0       -0.810430   -1.815245    0.108674
 ---------------------------------------------------------------------
 Rotational constants (GHZ):     10.7842910      9.1729092      5.1170658
 Leave Link  202 at Thu Mar 19 18:44:44 2026, MaxMem=   536870912 cpu:         0.0
 (Enter C:\G09W\l301.exe)
 Standard basis: 6-31G(d) (6D, 7F)
 Ernie: Thresh=  0.10000D-02 Tol=  0.10000D-05 Strict=F.
 There are    70 symmetry adapted cartesian basis functions of A   symmetry.
 There are    70 symmetry adapted basis functions of A   symmetry.
    70 basis functions,   132 primitive gaussians,    70 cartesian basis functions
    16 alpha electrons       16 beta electrons
       nuclear repulsion energy       121.1607645029 Hartrees.
 IExCor=  402 DFT=T Ex+Corr=B3LYP ExCW=0 ScaHFX=  0.200000
 ScaDFX=  0.800000  0.720000  1.000000  0.810000 ScalE2=  1.000000  1.000000
 IRadAn=      0 IRanWt=     -1 IRanGd=            0 ICorTp=0 IEmpDi=  4
 NAtoms=    9 NActive=    9 NUniq=    9 SFac= 1.00D+00 NAtFMM=   60 NAOKFM=F Big=F
 Integral buffers will be    131072 words long.
 Raffenetti 2 integral format.
 Two-electron integral symmetry is turned on.
 Leave Link  301 at Thu Mar 19 18:44:44 2026, MaxMem=   536870912 cpu:         0.0
 (Enter C:\G09W\l302.exe)
 NPDir=0 NMtPBC=     1 NCelOv=     1 NCel=       1 NClECP=     1 NCelD=      1
         NCelK=      1 NCelE2=     1 NClLst=     1 CellRange=     0.0.
 One-electron integrals computed using PRISM.
 NBasis=    70 RedAO= T EigKep=  4.02D-03  NBF=    70
 NBsUse=    70 1.00D-06 EigRej= -1.00D+00 NBFU=    70
 Precomputing XC quadrature grid using
 IXCGrd= 4 IRadAn=           0 IRanWt=          -1 IRanGd=           0 AccXCQ= 0.00D+00.
 Generated NRdTot=       0 NPtTot=           0 NUsed=           0 NTot=          32
 NSgBfM=    70    70    70    70    70 MxSgAt=     9 MxSgA2=     9.
 Leave Link  302 at Thu Mar 19 18:44:45 2026, MaxMem=   536870912 cpu:         1.0
 (Enter C:\G09W\l303.exe)
 DipDrv:  MaxL=1.
 Leave Link  303 at Thu Mar 19 18:44:45 2026, MaxMem=   536870912 cpu:         0.0
 (Enter C:\G09W\l401.exe)
 Initial guess from the checkpoint file:  "acetamide_rdkit.chk"
 B after Tr=     0.000000    0.000000    0.000000
         Rot=    0.999912    0.000007   -0.000546    0.013246 Ang=   1.52 deg.
 Guess basis will be translated and rotated to current coordinates.
 JPrj=2 DoOrth=T DoCkMO=T.
 Generating alternative initial guess.
 ExpMin= 1.61D-01 ExpMax= 5.48D+03 ExpMxC= 8.25D+02 IAcc=1 IRadAn=         1 AccDes= 0.00D+00
 Harris functional with IExCor=  402 and IRadAn=       1 diagonalized for initial guess.
 HarFok:  IExCor=  402 AccDes= 0.00D+00 IRadAn=         1 IDoV= 1 UseB2=F ITyADJ=14
 ICtDFT=  3500011 ScaDFX=  1.000000  1.000000  1.000000  1.000000
 FoFCou: FMM=F IPFlag=           0 FMFlag=      100000 FMFlg1=           0
         NFxFlg=           0 DoJE=T BraDBF=F KetDBF=T FulRan=T
         wScrn=  0.000000 ICntrl=     500 IOpCl=  0 I1Cent=   200000004 NGrid=           0
         NMat0=    1 NMatS0=      1 NMatT0=    0 NMatD0=    1 NMtDS0=    0 NMtDT0=    0
 Petite list used in FoFCou.
 Harris En= -209.249339634594    
 Leave Link  401 at Thu Mar 19 18:44:45 2026, MaxMem=   536870912 cpu:         0.0
 (Enter C:\G09W\l502.exe)
 Closed shell SCF:
 Using DIIS extrapolation, IDIIS=  1040.
 Integral symmetry usage will be decided dynamically.
 Keep R1 ints in memory in canonical form, NReq=4012979.
 IVT=       34204 IEndB=       34204 NGot=   536870912 MDV=   533747854
 LenX=   533747854 LenY=   533742513
 Requested convergence on RMS density matrix=1.00D-08 within 128 cycles.
 Requested convergence on MAX density matrix=1.00D-06.
 Requested convergence on             energy=1.00D-06.
 No special actions if energy rises.
 FoFCou: FMM=F IPFlag=           0 FMFlag=           0 FMFlg1=           0
         NFxFlg=           0 DoJE=F BraDBF=F KetDBF=F FulRan=T
         wScrn=  0.000000 ICntrl=     600 IOpCl=  0 I1Cent=           0 NGrid=           0
         NMat0=    1 NMatS0=   2485 NMatT0=    0 NMatD0=    1 NMtDS0=    0 NMtDT0=    0
 Symmetry not used in FoFCou.
 Integral accuracy reduced to 1.0D-05 until final iterations.

 Cycle   1  Pass 0  IDiag  1:
 E= -209.211381036129    
 DIIS: error= 1.40D-03 at cycle   1 NSaved=   1.
 NSaved= 1 IEnMin= 1 EnMin= -209.211381036129     IErMin= 1 ErrMin= 1.40D-03
 ErrMax= 1.40D-03  0.00D+00 EMaxC= 1.00D-01 BMatC= 4.39D-04 BMatP= 4.39D-04
 IDIUse=3 WtCom= 9.86D-01 WtEn= 1.40D-02
 Coeff-Com:  0.100D+01
 Coeff-En:   0.100D+01
 Coeff:      0.100D+01
 Gap=     1.690 Goal=   None    Shift=    0.000
 GapD=    1.690 DampG=2.000 DampE=1.000 DampFc=2.0000 IDamp=-1.
 RMSDP=5.96D-04 MaxDP=5.24D-03              OVMax= 7.74D-03

 Cycle   2  Pass 0  IDiag  1:
 E= -209.212070599222     Delta-E=       -0.000689563093 Rises=F Damp=F
 DIIS: error= 6.67D-04 at cycle   2 NSaved=   2.
 NSaved= 2 IEnMin= 2 EnMin= -209.212070599222     IErMin= 2 ErrMin= 6.67D-04
 ErrMax= 6.67D-04  0.00D+00 EMaxC= 1.00D-01 BMatC= 5.37D-05 BMatP= 4.39D-04
 IDIUse=3 WtCom= 9.93D-01 WtEn= 6.67D-03
 Coeff-Com:  0.125D+00 0.875D+00
 Coeff-En:   0.000D+00 0.100D+01
 Coeff:      0.124D+00 0.876D+00
 Gap=     0.275 Goal=   None    Shift=    0.000
 RMSDP=2.05D-04 MaxDP=3.54D-03 DE=-6.90D-04 OVMax= 4.29D-03

 Cycle   3  Pass 0  IDiag  1:
 E= -209.212021331890     Delta-E=        0.000049267332 Rises=F Damp=F
 DIIS: error= 9.99D-04 at cycle   3 NSaved=   3.
 NSaved= 3 IEnMin= 2 EnMin= -209.212070599222     IErMin= 2 ErrMin= 6.67D-04
 ErrMax= 9.99D-04  0.00D+00 EMaxC= 1.00D-01 BMatC= 1.23D-04 BMatP= 5.37D-05
 IDIUse=3 WtCom= 2.40D-01 WtEn= 7.60D-01
 Coeff-Com: -0.255D-01 0.618D+00 0.408D+00
 Coeff-En:   0.000D+00 0.648D+00 0.352D+00
 Coeff:     -0.614D-02 0.641D+00 0.365D+00
 Gap=     0.277 Goal=   None    Shift=    0.000
 RMSDP=1.31D-04 MaxDP=2.53D-03 DE= 4.93D-05 OVMax= 3.40D-03

 Cycle   4  Pass 0  IDiag  1:
 E= -209.212115826649     Delta-E=       -0.000094494759 Rises=F Damp=F
 DIIS: error= 1.32D-04 at cycle   4 NSaved=   4.
 NSaved= 4 IEnMin= 4 EnMin= -209.212115826649     IErMin= 4 ErrMin= 1.32D-04
 ErrMax= 1.32D-04  0.00D+00 EMaxC= 1.00D-01 BMatC= 1.95D-06 BMatP= 5.37D-05
 IDIUse=3 WtCom= 9.99D-01 WtEn= 1.32D-03
 Coeff-Com: -0.206D-01 0.264D+00 0.165D+00 0.591D+00
 Coeff-En:   0.000D+00 0.000D+00 0.000D+00 0.100D+01
 Coeff:     -0.206D-01 0.264D+00 0.165D+00 0.592D+00
 Gap=     0.277 Goal=   None    Shift=    0.000
 RMSDP=2.53D-05 MaxDP=3.14D-04 DE=-9.45D-05 OVMax= 5.20D-04

 Cycle   5  Pass 0  IDiag  1:
 E= -209.212117469489     Delta-E=       -0.000001642840 Rises=F Damp=F
 DIIS: error= 4.39D-05 at cycle   5 NSaved=   5.
 NSaved= 5 IEnMin= 5 EnMin= -209.212117469489     IErMin= 5 ErrMin= 4.39D-05
 ErrMax= 4.39D-05  0.00D+00 EMaxC= 1.00D-01 BMatC= 2.81D-07 BMatP= 1.95D-06
 IDIUse=1 WtCom= 1.00D+00 WtEn= 0.00D+00
 Coeff-Com: -0.887D-02 0.863D-01 0.560D-01 0.313D+00 0.553D+00
 Coeff:     -0.887D-02 0.863D-01 0.560D-01 0.313D+00 0.553D+00
 Gap=     0.277 Goal=   None    Shift=    0.000
 RMSDP=7.23D-06 MaxDP=1.43D-04 DE=-1.64D-06 OVMax= 1.80D-04

 Initial convergence to 1.0D-05 achieved.  Increase integral accuracy.
 Cycle   6  Pass 1  IDiag  1:
 E= -209.212108604829     Delta-E=        0.000008864660 Rises=F Damp=F
 DIIS: error= 9.03D-06 at cycle   1 NSaved=   1.
 NSaved= 1 IEnMin= 1 EnMin= -209.212108604829     IErMin= 1 ErrMin= 9.03D-06
 ErrMax= 9.03D-06  0.00D+00 EMaxC= 1.00D-01 BMatC= 1.77D-08 BMatP= 1.77D-08
 IDIUse=1 WtCom= 1.00D+00 WtEn= 0.00D+00
 Coeff-Com:  0.100D+01
 Coeff:      0.100D+01
 Gap=     0.276 Goal=   None    Shift=    0.000
 RMSDP=7.23D-06 MaxDP=1.43D-04 DE= 8.86D-06 OVMax= 8.86D-05

 Cycle   7  Pass 1  IDiag  1:
 E= -209.212108596035     Delta-E=        0.000000008793 Rises=F Damp=F
 DIIS: error= 1.40D-05 at cycle   2 NSaved=   2.
 NSaved= 2 IEnMin= 1 EnMin= -209.212108604829     IErMin= 1 ErrMin= 9.03D-06
 ErrMax= 1.40D-05  0.00D+00 EMaxC= 1.00D-01 BMatC= 3.15D-08 BMatP= 1.77D-08
 IDIUse=1 WtCom= 1.00D+00 WtEn= 0.00D+00
 Coeff-Com:  0.579D+00 0.421D+00
 Coeff:      0.579D+00 0.421D+00
 Gap=     0.277 Goal=   None    Shift=    0.000
 RMSDP=2.40D-06 MaxDP=5.39D-05 DE= 8.79D-09 OVMax= 7.93D-05

 Cycle   8  Pass 1  IDiag  1:
 E= -209.212108620790     Delta-E=       -0.000000024754 Rises=F Damp=F
 DIIS: error= 4.54D-06 at cycle   3 NSaved=   3.
 NSaved= 3 IEnMin= 3 EnMin= -209.212108620790     IErMin= 3 ErrMin= 4.54D-06
 ErrMax= 4.54D-06  0.00D+00 EMaxC= 1.00D-01 BMatC= 2.17D-09 BMatP= 1.77D-08
 IDIUse=1 WtCom= 1.00D+00 WtEn= 0.00D+00
 Coeff-Com:  0.213D+00 0.237D+00 0.550D+00
 Coeff:      0.213D+00 0.237D+00 0.550D+00
 Gap=     0.276 Goal=   None    Shift=    0.000
 RMSDP=8.44D-07 MaxDP=1.61D-05 DE=-2.48D-08 OVMax= 2.32D-05

 Cycle   9  Pass 1  IDiag  1:
 E= -209.212108622157     Delta-E=       -0.000000001367 Rises=F Damp=F
 DIIS: error= 2.01D-06 at cycle   4 NSaved=   4.
 NSaved= 4 IEnMin= 4 EnMin= -209.212108622157     IErMin= 4 ErrMin= 2.01D-06
 ErrMax= 2.01D-06  0.00D+00 EMaxC= 1.00D-01 BMatC= 5.00D-10 BMatP= 2.17D-09
 IDIUse=1 WtCom= 1.00D+00 WtEn= 0.00D+00
 Coeff-Com:  0.400D-02 0.596D-01 0.358D+00 0.579D+00
 Coeff:      0.400D-02 0.596D-01 0.358D+00 0.579D+00
 Gap=     0.276 Goal=   None    Shift=    0.000
 RMSDP=2.96D-07 MaxDP=5.39D-06 DE=-1.37D-09 OVMax= 6.11D-06

 Cycle  10  Pass 1  IDiag  1:
 E= -209.212108622509     Delta-E=       -0.000000000352 Rises=F Damp=F
 DIIS: error= 4.22D-07 at cycle   5 NSaved=   5.
 NSaved= 5 IEnMin= 5 EnMin= -209.212108622509     IErMin= 5 ErrMin= 4.22D-07
 ErrMax= 4.22D-07  0.00D+00 EMaxC= 1.00D-01 BMatC= 2.19D-11 BMatP= 5.00D-10
 IDIUse=1 WtCom= 1.00D+00 WtEn= 0.00D+00
 Coeff-Com: -0.986D-02 0.179D-01 0.159D+00 0.304D+00 0.529D+00
 Coeff:     -0.986D-02 0.179D-01 0.159D+00 0.304D+00 0.529D+00
 Gap=     0.276 Goal=   None    Shift=    0.000
 RMSDP=6.59D-08 MaxDP=9.96D-07 DE=-3.52D-10 OVMax= 1.37D-06

 Cycle  11  Pass 1  IDiag  1:
 E= -209.212108622526     Delta-E=       -0.000000000018 Rises=F Damp=F
 DIIS: error= 7.66D-08 at cycle   6 NSaved=   6.
 NSaved= 6 IEnMin= 6 EnMin= -209.212108622526     IErMin= 6 ErrMin= 7.66D-08
 ErrMax= 7.66D-08  0.00D+00 EMaxC= 1.00D-01 BMatC= 4.82D-13 BMatP= 2.19D-11
 IDIUse=1 WtCom= 1.00D+00 WtEn= 0.00D+00
 Coeff-Com: -0.293D-02 0.171D-02 0.272D-01 0.530D-01 0.167D+00 0.754D+00
 Coeff:     -0.293D-02 0.171D-02 0.272D-01 0.530D-01 0.167D+00 0.754D+00
 Gap=     0.276 Goal=   None    Shift=    0.000
 RMSDP=1.41D-08 MaxDP=1.61D-07 DE=-1.78D-11 OVMax= 4.21D-07

 Cycle  12  Pass 1  IDiag  1:
 E= -209.212108622531     Delta-E=       -0.000000000004 Rises=F Damp=F
 DIIS: error= 1.71D-08 at cycle   7 NSaved=   7.
 NSaved= 7 IEnMin= 7 EnMin= -209.212108622531     IErMin= 7 ErrMin= 1.71D-08
 ErrMax= 1.71D-08  0.00D+00 EMaxC= 1.00D-01 BMatC= 2.64D-14 BMatP= 4.82D-13
 IDIUse=1 WtCom= 1.00D+00 WtEn= 0.00D+00
 Coeff-Com:  0.331D-03-0.149D-02-0.943D-02-0.184D-01-0.146D-01 0.164D+00
 Coeff-Com:  0.879D+00
 Coeff:      0.331D-03-0.149D-02-0.943D-02-0.184D-01-0.146D-01 0.164D+00
 Coeff:      0.879D+00
 Gap=     0.276 Goal=   None    Shift=    0.000
 RMSDP=5.01D-09 MaxDP=6.69D-08 DE=-4.26D-12 OVMax= 1.88D-07

 SCF Done:  E(RB3LYP) =  -209.212108623     A.U. after   12 cycles
            NFock= 12  Conv=0.50D-08     -V/T= 2.0093
 KE= 2.072787267743D+02 PE=-7.310391413383D+02 EE= 1.933875414386D+02
 Leave Link  502 at Thu Mar 19 18:44:49 2026, MaxMem=   536870912 cpu:         4.0
 (Enter C:\G09W\l701.exe)
 Compute integral first derivatives.
 ... and contract with generalized density number  0.
 Leave Link  701 at Thu Mar 19 18:44:49 2026, MaxMem=   536870912 cpu:         0.0
 (Enter C:\G09W\l702.exe)
 L702 exits ... SP integral derivatives will be done elsewhere.
 Leave Link  702 at Thu Mar 19 18:44:49 2026, MaxMem=   536870912 cpu:         0.0
 (Enter C:\G09W\l703.exe)
 Compute integral first derivatives, UseDBF=F ICtDFT=           0.
 Integral derivatives from FoFJK, PRISM(SPDF).
 Calling FoFJK, ICntrl=      2127 FMM=F ISym2X=0 I1Cent= 0 IOpClX= 0 NMat=1 NMatS=1 NMatT=0.
 FoFJK:  IHMeth= 1 ICntrl=    2127 DoSepK=F KAlg= 0 I1Cent=   0 FoldK=F
 IRaf=         0 NMat=   1 IRICut=       1 DoRegI=T DoRafI=F ISym2E= 0.
 FoFCou: FMM=F IPFlag=           0 FMFlag=      100000 FMFlg1=         800
         NFxFlg=           0 DoJE=F BraDBF=F KetDBF=F FulRan=T
         wScrn=  0.000000 ICntrl=    2127 IOpCl=  0 I1Cent=           0 NGrid=           0
         NMat0=    1 NMatS0=      1 NMatT0=    0 NMatD0=    1 NMtDS0=    0 NMtDT0=    0
 Symmetry not used in FoFCou.
 Leave Link  703 at Thu Mar 19 18:44:50 2026, MaxMem=   536870912 cpu:         0.0
 (Enter C:\G09W\l716.exe)
 Dipole        = 4.01691297D-02-1.44800386D+00 1.47379743D-01
 ***** Axes restored to original set *****
 -------------------------------------------------------------------
 Center     Atomic                   Forces (Hartrees/Bohr)
 Number     Number              X              Y              Z
 -------------------------------------------------------------------
      1        6           0.000777258   -0.002504276    0.000307673
      2        6           0.000174041    0.005965843    0.001756923
      3        7          -0.000103800   -0.000326374   -0.001111649
      4        8          -0.000299732   -0.004102944    0.000469618
      5        1          -0.000421244    0.000286520   -0.000462059
      6        1           0.000250633    0.000173892   -0.000404967
      7        1          -0.000003198    0.000841324   -0.000486566
      8        1           0.000147908   -0.000217665   -0.000009989
      9        1          -0.000521866   -0.000116319   -0.000058983
 -------------------------------------------------------------------
 Cartesian Forces:  Max     0.005965843 RMS     0.001565952
 Leave Link  716 at Thu Mar 19 18:44:50 2026, MaxMem=   536870912 cpu:         0.0
 (Enter C:\G09W\l103.exe)

 GradGradGradGradGradGradGradGradGradGradGradGradGradGradGradGradGradGrad
 Berny optimization.
 Using GEDIIS/GDIIS optimizer.
 FormGI is forming the generalized inverse of G from B-inverse, IUseBI=4.
 Internal  Forces:  Max     0.003739185 RMS     0.000909315
 Search for a local minimum.
 Step number   2 out of a maximum of   40
 All quantities printed in internal units (Hartrees-Bohrs-Radians)
 RMS Force = .90931D-03 SwitMx=.10000D-02 MixMth= 2
 Mixed Optimization -- En-DIIS/RFO-DIIS
 Update second derivatives using D2CorX and points    1    2
 DE= -6.43D-04 DEPred=-7.08D-04 R= 9.08D-01
 TightC=F SS=  1.41D+00  RLast= 1.28D-01 DXNew= 5.0454D-01 3.8450D-01
 Trust test= 9.08D-01 RLast= 1.28D-01 DXMaxT set to 3.85D-01
 ITU=  1  0
 Use linear search instead of GDIIS.
     Eigenvalues ---    0.00740   0.01569   0.02224   0.02471   0.06905
     Eigenvalues ---    0.06977   0.15581   0.16000   0.16000   0.16000
     Eigenvalues ---    0.16745   0.24059   0.25236   0.31754   0.34408
     Eigenvalues ---    0.34439   0.34580   0.45639   0.45984   0.52967
     Eigenvalues ---    0.93421
 RFO step:  Lambda=-3.21697684D-04 EMin= 7.39678617D-03
 Quartic linear search produced a step of -0.06337.
 Iteration  1 RMS(Cart)=  0.01717249 RMS(Int)=  0.00048160
 Iteration  2 RMS(Cart)=  0.00054171 RMS(Int)=  0.00031019
 Iteration  3 RMS(Cart)=  0.00000006 RMS(Int)=  0.00031019
 ITry= 1 IFail=0 DXMaxC= 4.86D-02 DCOld= 1.00D+10 DXMaxT= 3.85D-01 DXLimC= 3.00D+00 Rises=F
 Variable       Old X    -DE/DX   Delta X   Delta X   Delta X     New X
                                 (Linear)    (Quad)   (Total)
    R1        2.87603  -0.00004  -0.00238   0.01120   0.00882   2.88485
    R2        2.06733   0.00046  -0.00010   0.00173   0.00163   2.06897
    R3        2.06983  -0.00034  -0.00021   0.00006  -0.00015   2.06968
    R4        2.06578   0.00030   0.00002   0.00074   0.00075   2.06653
    R5        2.59071  -0.00066  -0.00110   0.00408   0.00298   2.59369
    R6        2.31270  -0.00374   0.00015  -0.00445  -0.00431   2.30839
    R7        1.91009   0.00002   0.00015  -0.00065  -0.00050   1.90959
    R8        1.90548   0.00005   0.00019  -0.00081  -0.00062   1.90486
    A1        1.90410   0.00001   0.00001  -0.00064  -0.00066   1.90344
    A2        1.98582   0.00001  -0.00244   0.01287   0.01044   1.99626
    A3        1.90025  -0.00098   0.00023  -0.00753  -0.00731   1.89295
    A4        1.89789   0.00024   0.00000   0.00262   0.00261   1.90050
    A5        1.87832  -0.00008   0.00244  -0.01500  -0.01260   1.86572
    A6        1.89459   0.00080  -0.00006   0.00610   0.00605   1.90064
    A7        2.01946  -0.00093  -0.00021  -0.00134  -0.00248   2.01699
    A8        2.13579  -0.00027   0.00096  -0.00451  -0.00448   2.13131
    A9        2.12687   0.00125  -0.00068   0.00919   0.00757   2.13444
   A10        2.04514   0.00059  -0.00027   0.00439   0.00411   2.04925
   A11        2.14286  -0.00083  -0.00003  -0.00508  -0.00512   2.13774
   A12        2.06055   0.00019   0.00028  -0.00056  -0.00028   2.06026
    D1       -2.07908   0.00030   0.00285   0.02295   0.02567  -2.05341
    D2        1.11109  -0.00103  -0.00009  -0.05431  -0.05425   1.05684
    D3        0.04336   0.00062   0.00126   0.03458   0.03571   0.07907
    D4       -3.04965  -0.00070  -0.00168  -0.04267  -0.04421  -3.09386
    D5        2.15878   0.00094  -0.00023   0.04553   0.04513   2.20391
    D6       -0.93423  -0.00038  -0.00318  -0.03172  -0.03479  -0.96902
    D7        3.06277  -0.00080   0.00037  -0.05315  -0.05296   3.00980
    D8        0.20670  -0.00065   0.00046  -0.04810  -0.04783   0.15886
    D9       -0.12714   0.00048   0.00330   0.02326   0.02675  -0.10039
   D10       -2.98321   0.00062   0.00339   0.02830   0.03188  -2.95133
         Item               Value     Threshold  Converged?
 Maximum Force            0.003739     0.000450     NO 
 RMS     Force            0.000909     0.000300     NO 
 Maximum Displacement     0.048598     0.001800     NO 
 RMS     Displacement     0.017166     0.001200     NO 
 Predicted change in Energy=-1.655001D-04
 Lowest energy point so far.  Saving SCF results.
 GradGradGradGradGradGradGradGradGradGradGradGradGradGradGradGradGradGrad

 Leave Link  103 at Thu Mar 19 18:44:51 2026, MaxMem=   536870912 cpu:         0.0
 (Enter C:\G09W\l202.exe)
                          Input orientation:                          
 ---------------------------------------------------------------------
 Center     Atomic      Atomic             Coordinates (Angstroms)
 Number     Number       Type             X           Y           Z
 ---------------------------------------------------------------------
      1          6           0       -1.070077   -0.301997    0.003921
      2          6           0        0.179735    0.536080   -0.253167
      3          7           0        1.343102    0.045029    0.284662
      4          8           0        0.150296    1.557643   -0.922290
      5          1           0       -1.468577   -0.652698   -0.953630
      6          1           0       -0.908750   -1.165241    0.658376
      7          1           0       -1.833405    0.342232    0.449087
      8          1           0        2.204160    0.511370    0.035191
      9          1           0        1.403517   -0.872418    0.697852
 ---------------------------------------------------------------------
                    Distance matrix (angstroms):
                    1          2          3          4          5
     1  C    0.000000
     2  C    1.526596   0.000000
     3  N    2.454114   1.372522   0.000000
     4  O    2.409447   1.221549   2.273218   0.000000
     5  H    1.094851   2.149599   3.150513   2.739952   0.000000
     6  H    1.095229   2.215898   2.583651   3.321773   1.781760
     7  H    1.093561   2.140904   3.194615   2.700550   1.758010
     8  H    3.373895   2.045008   1.010510   2.495960   3.977665
     9  H    2.631651   2.094266   1.008011   3.178147   3.320331
                    6          7          8          9
     6  H    0.000000
     7  H    1.780804   0.000000
     8  H    3.590207   4.062247   0.000000
     9  H    2.331069   3.466255   1.730612   0.000000
 Stoichiometry    C2H5NO
 Framework group  C1[X(C2H5NO)]
 Deg. of freedom    21
 Full point group                 C1      NOp   1
 RotChk:  IX=0 Diff= 8.70D-03
 Largest Abelian subgroup         C1      NOp   1
 Largest concise Abelian subgroup C1      NOp   1
                         Standard orientation:                         
 ---------------------------------------------------------------------
 Center     Atomic      Atomic             Coordinates (Angstroms)
 Number     Number       Type             X           Y           Z
 ---------------------------------------------------------------------
      1          6           0        1.367041   -0.344407    0.002968
      2          6           0       -0.078045    0.147335   -0.017354
      3          7           0       -1.037527   -0.834034   -0.028528
      4          8           0       -0.360111    1.335576    0.009163
      5          1           0        1.847834   -0.003283    0.925557
      6          1           0        1.475680   -1.431622   -0.072450
      7          1           0        1.903726    0.123604   -0.826978
      8          1           0       -2.000109   -0.544788    0.075891
      9          1           0       -0.817527   -1.807843    0.110689
 ---------------------------------------------------------------------
 Rotational constants (GHZ):     10.7609568      9.1607908      5.1072715
 Leave Link  202 at Thu Mar 19 18:44:51 2026, MaxMem=   536870912 cpu:         0.0
 (Enter C:\G09W\l301.exe)
 Standard basis: 6-31G(d) (6D, 7F)
 Ernie: Thresh=  0.10000D-02 Tol=  0.10000D-05 Strict=F.
 There are    70 symmetry adapted cartesian basis functions of A   symmetry.
 There are    70 symmetry adapted basis functions of A   symmetry.
    70 basis functions,   132 primitive gaussians,    70 cartesian basis functions
    16 alpha electrons       16 beta electrons
       nuclear repulsion energy       121.0874575885 Hartrees.
 IExCor=  402 DFT=T Ex+Corr=B3LYP ExCW=0 ScaHFX=  0.200000
 ScaDFX=  0.800000  0.720000  1.000000  0.810000 ScalE2=  1.000000  1.000000
 IRadAn=      0 IRanWt=     -1 IRanGd=            0 ICorTp=0 IEmpDi=  4
 NAtoms=    9 NActive=    9 NUniq=    9 SFac= 1.00D+00 NAtFMM=   60 NAOKFM=F Big=F
 Integral buffers will be    131072 words long.
 Raffenetti 2 integral format.
 Two-electron integral symmetry is turned on.
 Leave Link  301 at Thu Mar 19 18:44:51 2026, MaxMem=   536870912 cpu:         0.0
 (Enter C:\G09W\l302.exe)
 NPDir=0 NMtPBC=     1 NCelOv=     1 NCel=       1 NClECP=     1 NCelD=      1
         NCelK=      1 NCelE2=     1 NClLst=     1 CellRange=     0.0.
 One-electron integrals computed using PRISM.
 NBasis=    70 RedAO= T EigKep=  4.01D-03  NBF=    70
 NBsUse=    70 1.00D-06 EigRej= -1.00D+00 NBFU=    70
 Precomputing XC quadrature grid using
 IXCGrd= 4 IRadAn=           0 IRanWt=          -1 IRanGd=           0 AccXCQ= 0.00D+00.
 Generated NRdTot=       0 NPtTot=           0 NUsed=           0 NTot=          32
 NSgBfM=    70    70    70    70    70 MxSgAt=     9 MxSgA2=     9.
 Leave Link  302 at Thu Mar 19 18:44:52 2026, MaxMem=   536870912 cpu:         1.0
 (Enter C:\G09W\l303.exe)
 DipDrv:  MaxL=1.
 Leave Link  303 at Thu Mar 19 18:44:52 2026, MaxMem=   536870912 cpu:         0.0
 (Enter C:\G09W\l401.exe)
 Initial guess from the checkpoint file:  "acetamide_rdkit.chk"
 B after Tr=     0.000000    0.000000    0.000000
         Rot=    0.999992    0.000229    0.000719    0.003808 Ang=   0.44 deg.
 Guess basis will be translated and rotated to current coordinates.
 JPrj=2 DoOrth=T DoCkMO=T.
 Generating alternative initial guess.
 ExpMin= 1.61D-01 ExpMax= 5.48D+03 ExpMxC= 8.25D+02 IAcc=1 IRadAn=         1 AccDes= 0.00D+00
 Harris functional with IExCor=  402 and IRadAn=       1 diagonalized for initial guess.
 HarFok:  IExCor=  402 AccDes= 0.00D+00 IRadAn=         1 IDoV= 1 UseB2=F ITyADJ=14
 ICtDFT=  3500011 ScaDFX=  1.000000  1.000000  1.000000  1.000000
 FoFCou: FMM=F IPFlag=           0 FMFlag=      100000 FMFlg1=           0
         NFxFlg=           0 DoJE=T BraDBF=F KetDBF=T FulRan=T
         wScrn=  0.000000 ICntrl=     500 IOpCl=  0 I1Cent=   200000004 NGrid=           0
         NMat0=    1 NMatS0=      1 NMatT0=    0 NMatD0=    1 NMtDS0=    0 NMtDT0=    0
 Petite list used in FoFCou.
 Harris En= -209.249015643571    
 Leave Link  401 at Thu Mar 19 18:44:52 2026, MaxMem=   536870912 cpu:         0.0
 (Enter C:\G09W\l502.exe)
 Closed shell SCF:
 Using DIIS extrapolation, IDIIS=  1040.
 Integral symmetry usage will be decided dynamically.
 Keep R1 ints in memory in canonical form, NReq=4012979.
 IVT=       34204 IEndB=       34204 NGot=   536870912 MDV=   533747854
 LenX=   533747854 LenY=   533742513
 Requested convergence on RMS density matrix=1.00D-08 within 128 cycles.
 Requested convergence on MAX density matrix=1.00D-06.
 Requested convergence on             energy=1.00D-06.
 No special actions if energy rises.
 FoFCou: FMM=F IPFlag=           0 FMFlag=           0 FMFlg1=           0
         NFxFlg=           0 DoJE=F BraDBF=F KetDBF=F FulRan=T
         wScrn=  0.000000 ICntrl=     600 IOpCl=  0 I1Cent=           0 NGrid=           0
         NMat0=    1 NMatS0=   2485 NMatT0=    0 NMatD0=    1 NMtDS0=    0 NMtDT0=    0
 Symmetry not used in FoFCou.
 Integral accuracy reduced to 1.0D-05 until final iterations.

 Cycle   1  Pass 0  IDiag  1:
 E= -209.211144085964    
 DIIS: error= 2.00D-03 at cycle   1 NSaved=   1.
 NSaved= 1 IEnMin= 1 EnMin= -209.211144085964     IErMin= 1 ErrMin= 2.00D-03
 ErrMax= 2.00D-03  0.00D+00 EMaxC= 1.00D-01 BMatC= 4.99D-04 BMatP= 4.99D-04
 IDIUse=3 WtCom= 9.80D-01 WtEn= 2.00D-02
 Coeff-Com:  0.100D+01
 Coeff-En:   0.100D+01
 Coeff:      0.100D+01
 Gap=     1.698 Goal=   None    Shift=    0.000
 GapD=    1.698 DampG=2.000 DampE=1.000 DampFc=2.0000 IDamp=-1.
 RMSDP=6.51D-04 MaxDP=8.05D-03              OVMax= 9.42D-03

 Cycle   2  Pass 0  IDiag  1:
 E= -209.212048832046     Delta-E=       -0.000904746082 Rises=F Damp=F
 DIIS: error= 2.39D-04 at cycle   2 NSaved=   2.
 NSaved= 2 IEnMin= 2 EnMin= -209.212048832046     IErMin= 2 ErrMin= 2.39D-04
 ErrMax= 2.39D-04  0.00D+00 EMaxC= 1.00D-01 BMatC= 1.28D-05 BMatP= 4.99D-04
 IDIUse=3 WtCom= 9.98D-01 WtEn= 2.39D-03
 Coeff-Com: -0.424D-01 0.104D+01
 Coeff-En:   0.000D+00 0.100D+01
 Coeff:     -0.423D-01 0.104D+01
 Gap=     0.276 Goal=   None    Shift=    0.000
 RMSDP=1.11D-04 MaxDP=1.53D-03 DE=-9.05D-04 OVMax= 2.31D-03

 Cycle   3  Pass 0  IDiag  1:
 E= -209.212047235822     Delta-E=        0.000001596224 Rises=F Damp=F
 DIIS: error= 4.27D-04 at cycle   3 NSaved=   3.
 NSaved= 3 IEnMin= 2 EnMin= -209.212048832046     IErMin= 2 ErrMin= 2.39D-04
 ErrMax= 4.27D-04  0.00D+00 EMaxC= 1.00D-01 BMatC= 2.26D-05 BMatP= 1.28D-05
 IDIUse=3 WtCom= 3.26D-01 WtEn= 6.74D-01
 Coeff-Com: -0.448D-01 0.627D+00 0.418D+00
 Coeff-En:   0.000D+00 0.533D+00 0.467D+00
 Coeff:     -0.146D-01 0.563D+00 0.451D+00
 Gap=     0.277 Goal=   None    Shift=    0.000
 RMSDP=8.06D-05 MaxDP=1.55D-03 DE= 1.60D-06 OVMax= 2.07D-03

 Cycle   4  Pass 0  IDiag  1:
 E= -209.212061286920     Delta-E=       -0.000014051098 Rises=F Damp=F
 DIIS: error= 1.97D-04 at cycle   4 NSaved=   4.
 NSaved= 4 IEnMin= 4 EnMin= -209.212061286920     IErMin= 4 ErrMin= 1.97D-04
 ErrMax= 1.97D-04  0.00D+00 EMaxC= 1.00D-01 BMatC= 4.44D-06 BMatP= 1.28D-05
 IDIUse=3 WtCom= 9.98D-01 WtEn= 1.97D-03
 Coeff-Com: -0.185D-01 0.195D+00 0.316D+00 0.508D+00
 Coeff-En:   0.000D+00 0.000D+00 0.201D+00 0.799D+00
 Coeff:     -0.185D-01 0.194D+00 0.316D+00 0.508D+00
 Gap=     0.277 Goal=   None    Shift=    0.000
 RMSDP=2.72D-05 MaxDP=5.04D-04 DE=-1.41D-05 OVMax= 8.02D-04

 Cycle   5  Pass 0  IDiag  1:
 E= -209.212064669528     Delta-E=       -0.000003382608 Rises=F Damp=F
 DIIS: error= 2.47D-05 at cycle   5 NSaved=   5.
 NSaved= 5 IEnMin= 5 EnMin= -209.212064669528     IErMin= 5 ErrMin= 2.47D-05
 ErrMax= 2.47D-05  0.00D+00 EMaxC= 1.00D-01 BMatC= 7.96D-08 BMatP= 4.44D-06
 IDIUse=1 WtCom= 1.00D+00 WtEn= 0.00D+00
 Coeff-Com: -0.623D-02 0.559D-01 0.130D+00 0.246D+00 0.574D+00
 Coeff:     -0.623D-02 0.559D-01 0.130D+00 0.246D+00 0.574D+00
 Gap=     0.277 Goal=   None    Shift=    0.000
 RMSDP=4.33D-06 MaxDP=8.90D-05 DE=-3.38D-06 OVMax= 9.89D-05

 Initial convergence to 1.0D-05 achieved.  Increase integral accuracy.
 Cycle   6  Pass 1  IDiag  1:
 E= -209.212052582174     Delta-E=        0.000012087354 Rises=F Damp=F
 DIIS: error= 7.41D-06 at cycle   1 NSaved=   1.
 NSaved= 1 IEnMin= 1 EnMin= -209.212052582174     IErMin= 1 ErrMin= 7.41D-06
 ErrMax= 7.41D-06  0.00D+00 EMaxC= 1.00D-01 BMatC= 1.39D-08 BMatP= 1.39D-08
 IDIUse=1 WtCom= 1.00D+00 WtEn= 0.00D+00
 Coeff-Com:  0.100D+01
 Coeff:      0.100D+01
 Gap=     0.277 Goal=   None    Shift=    0.000
 RMSDP=4.33D-06 MaxDP=8.90D-05 DE= 1.21D-05 OVMax= 7.28D-05

 Cycle   7  Pass 1  IDiag  1:
 E= -209.212052579123     Delta-E=        0.000000003051 Rises=F Damp=F
 DIIS: error= 1.11D-05 at cycle   2 NSaved=   2.
 NSaved= 2 IEnMin= 1 EnMin= -209.212052582174     IErMin= 1 ErrMin= 7.41D-06
 ErrMax= 1.11D-05  0.00D+00 EMaxC= 1.00D-01 BMatC= 2.07D-08 BMatP= 1.39D-08
 IDIUse=1 WtCom= 1.00D+00 WtEn= 0.00D+00
 Coeff-Com:  0.555D+00 0.445D+00
 Coeff:      0.555D+00 0.445D+00
 Gap=     0.277 Goal=   None    Shift=    0.000
 RMSDP=1.92D-06 MaxDP=4.44D-05 DE= 3.05D-09 OVMax= 5.55D-05

 Cycle   8  Pass 1  IDiag  1:
 E= -209.212052596135     Delta-E=       -0.000000017012 Rises=F Damp=F
 DIIS: error= 3.13D-06 at cycle   3 NSaved=   3.
 NSaved= 3 IEnMin= 3 EnMin= -209.212052596135     IErMin= 3 ErrMin= 3.13D-06
 ErrMax= 3.13D-06  0.00D+00 EMaxC= 1.00D-01 BMatC= 8.61D-10 BMatP= 1.39D-08
 IDIUse=1 WtCom= 1.00D+00 WtEn= 0.00D+00
 Coeff-Com:  0.931D-01 0.182D+00 0.725D+00
 Coeff:      0.931D-01 0.182D+00 0.725D+00
 Gap=     0.277 Goal=   None    Shift=    0.000
 RMSDP=6.10D-07 MaxDP=1.03D-05 DE=-1.70D-08 OVMax= 1.96D-05

 Cycle   9  Pass 1  IDiag  1:
 E= -209.212052596443     Delta-E=       -0.000000000308 Rises=F Damp=F
 DIIS: error= 2.31D-06 at cycle   4 NSaved=   4.
 NSaved= 4 IEnMin= 4 EnMin= -209.212052596443     IErMin= 4 ErrMin= 2.31D-06
 ErrMax= 2.31D-06  0.00D+00 EMaxC= 1.00D-01 BMatC= 5.76D-10 BMatP= 8.61D-10
 IDIUse=1 WtCom= 1.00D+00 WtEn= 0.00D+00
 Coeff-Com:  0.358D-02 0.784D-01 0.513D+00 0.405D+00
 Coeff:      0.358D-02 0.784D-01 0.513D+00 0.405D+00
 Gap=     0.277 Goal=   None    Shift=    0.000
 RMSDP=3.10D-07 MaxDP=5.96D-06 DE=-3.08D-10 OVMax= 7.25D-06

 Cycle  10  Pass 1  IDiag  1:
 E= -209.212052596880     Delta-E=       -0.000000000437 Rises=F Damp=F
 DIIS: error= 2.32D-07 at cycle   5 NSaved=   5.
 NSaved= 5 IEnMin= 5 EnMin= -209.212052596880     IErMin= 5 ErrMin= 2.32D-07
 ErrMax= 2.32D-07  0.00D+00 EMaxC= 1.00D-01 BMatC= 1.02D-11 BMatP= 5.76D-10
 IDIUse=1 WtCom= 1.00D+00 WtEn= 0.00D+00
 Coeff-Com: -0.833D-02 0.185D-01 0.176D+00 0.178D+00 0.636D+00
 Coeff:     -0.833D-02 0.185D-01 0.176D+00 0.178D+00 0.636D+00
 Gap=     0.277 Goal=   None    Shift=    0.000
 RMSDP=4.72D-08 MaxDP=6.17D-07 DE=-4.37D-10 OVMax= 9.43D-07

 Cycle  11  Pass 1  IDiag  1:
 E= -209.212052596886     Delta-E=       -0.000000000005 Rises=F Damp=F
 DIIS: error= 3.84D-08 at cycle   6 NSaved=   6.
 NSaved= 6 IEnMin= 6 EnMin= -209.212052596886     IErMin= 6 ErrMin= 3.84D-08
 ErrMax= 3.84D-08  0.00D+00 EMaxC= 1.00D-01 BMatC= 2.83D-13 BMatP= 1.02D-11
 IDIUse=1 WtCom= 1.00D+00 WtEn= 0.00D+00
 Coeff-Com: -0.215D-02 0.178D-02 0.269D-01 0.244D-01 0.167D+00 0.783D+00
 Coeff:     -0.215D-02 0.178D-02 0.269D-01 0.244D-01 0.167D+00 0.783D+00
 Gap=     0.277 Goal=   None    Shift=    0.000
 RMSDP=1.13D-08 MaxDP=1.52D-07 DE=-5.29D-12 OVMax= 3.49D-07

 Cycle  12  Pass 1  IDiag  1:
 E= -209.212052596886     Delta-E=        0.000000000000 Rises=F Damp=F
 DIIS: error= 2.43D-08 at cycle   7 NSaved=   7.
 NSaved= 7 IEnMin= 6 EnMin= -209.212052596886     IErMin= 7 ErrMin= 2.43D-08
 ErrMax= 2.43D-08  0.00D+00 EMaxC= 1.00D-01 BMatC= 6.49D-14 BMatP= 2.83D-13
 IDIUse=1 WtCom= 1.00D+00 WtEn= 0.00D+00
 Coeff-Com:  0.266D-03-0.205D-02-0.146D-01-0.165D-01-0.192D-01 0.364D+00
 Coeff-Com:  0.688D+00
 Coeff:      0.266D-03-0.205D-02-0.146D-01-0.165D-01-0.192D-01 0.364D+00
 Coeff:      0.688D+00
 Gap=     0.277 Goal=   None    Shift=    0.000
 RMSDP=4.66D-09 MaxDP=6.32D-08 DE= 5.68D-14 OVMax= 1.57D-07

 SCF Done:  E(RB3LYP) =  -209.212052597     A.U. after   12 cycles
            NFock= 12  Conv=0.47D-08     -V/T= 2.0094
 KE= 2.072728650602D+02 PE=-7.308821793410D+02 EE= 1.933098040954D+02
 Leave Link  502 at Thu Mar 19 18:44:56 2026, MaxMem=   536870912 cpu:         4.0
 (Enter C:\G09W\l701.exe)
 Compute integral first derivatives.
 ... and contract with generalized density number  0.
 Leave Link  701 at Thu Mar 19 18:44:56 2026, MaxMem=   536870912 cpu:         0.0
 (Enter C:\G09W\l702.exe)
 L702 exits ... SP integral derivatives will be done elsewhere.
 Leave Link  702 at Thu Mar 19 18:44:56 2026, MaxMem=   536870912 cpu:         0.0
 (Enter C:\G09W\l703.exe)
 Compute integral first derivatives, UseDBF=F ICtDFT=           0.
 Integral derivatives from FoFJK, PRISM(SPDF).
 Calling FoFJK, ICntrl=      2127 FMM=F ISym2X=0 I1Cent= 0 IOpClX= 0 NMat=1 NMatS=1 NMatT=0.
 FoFJK:  IHMeth= 1 ICntrl=    2127 DoSepK=F KAlg= 0 I1Cent=   0 FoldK=F
 IRaf=         0 NMat=   1 IRICut=       1 DoRegI=T DoRafI=F ISym2E= 0.
 FoFCou: FMM=F IPFlag=           0 FMFlag=      100000 FMFlg1=         800
         NFxFlg=           0 DoJE=F BraDBF=F KetDBF=F FulRan=T
         wScrn=  0.000000 ICntrl=    2127 IOpCl=  0 I1Cent=           0 NGrid=           0
         NMat0=    1 NMatS0=      1 NMatT0=    0 NMatD0=    1 NMtDS0=    0 NMtDT0=    0
 Symmetry not used in FoFCou.
 Leave Link  703 at Thu Mar 19 18:44:57 2026, MaxMem=   536870912 cpu:         1.0
 (Enter C:\G09W\l716.exe)
 Dipole        = 2.68684287D-02-1.43931290D+00 1.47413658D-01
 ***** Axes restored to original set *****
 -------------------------------------------------------------------
 Center     Atomic                   Forces (Hartrees/Bohr)
 Number     Number              X              Y              Z
 -------------------------------------------------------------------
      1        6           0.000021059    0.001549987    0.001663086
      2        6           0.000814736   -0.004800039   -0.005301036
      3        7          -0.001784505    0.001766018    0.000182804
      4        8          -0.000142614    0.000472828    0.002924083
      5        1           0.001120124    0.000218531   -0.000295350
      6        1           0.000543853    0.000661886   -0.000125037
      7        1          -0.000272489    0.000048890    0.000508220
      8        1           0.000165770    0.000191686    0.000097461
      9        1          -0.000465933   -0.000109787    0.000345769
 -------------------------------------------------------------------
 Cartesian Forces:  Max     0.005301036 RMS     0.001666681
 Leave Link  716 at Thu Mar 19 18:44:57 2026, MaxMem=   536870912 cpu:         0.0
 (Enter C:\G09W\l103.exe)

 GradGradGradGradGradGradGradGradGradGradGradGradGradGradGradGradGradGrad
 Berny optimization.
 Using GEDIIS/GDIIS optimizer.
 FormGI is forming the generalized inverse of G from B-inverse, IUseBI=4.
 Internal  Forces:  Max     0.002223538 RMS     0.000956645
 Search for a local minimum.
 Step number   3 out of a maximum of   40
 All quantities printed in internal units (Hartrees-Bohrs-Radians)
 RMS Force = .95665D-03 SwitMx=.10000D-02 MixMth= 2
 Mixed Optimization -- En-DIIS/RFO-DIIS
 Swapping is turned off.
 Update second derivatives using D2CorX and points    1    2    3
 DE=  5.60D-05 DEPred=-1.66D-04 R=-3.39D-01
 Trust test=-3.39D-01 RLast= 1.32D-01 DXMaxT set to 1.92D-01
 ITU= -1  1  0
     Eigenvalues ---    0.00741   0.02003   0.02457   0.03769   0.06125
     Eigenvalues ---    0.06968   0.15213   0.15999   0.16000   0.16527
     Eigenvalues ---    0.17082   0.23093   0.25294   0.31724   0.34410
     Eigenvalues ---    0.34470   0.34789   0.45639   0.45977   0.53599
     Eigenvalues ---    0.92063
 En-DIIS/RFO-DIIS IScMMF=        0 using points:     3    2
 RFO step:  Lambda=-7.65819411D-05.
 NNeg= 0 NP= 2 Switch=  2.50D-03 Rises=F DC= -5.60D-05 SmlDif=  1.00D-05
 RMS Error=  0.3070040375D-02 NUsed= 2 EDIIS=F
 DidBck=T Rises=F RFO-DIIS coefs:    0.42629    0.57371
 Iteration  1 RMS(Cart)=  0.00950345 RMS(Int)=  0.00013635
 Iteration  2 RMS(Cart)=  0.00017838 RMS(Int)=  0.00007591
 Iteration  3 RMS(Cart)=  0.00000000 RMS(Int)=  0.00007591
 ITry= 1 IFail=0 DXMaxC= 2.95D-02 DCOld= 1.00D+10 DXMaxT= 1.92D-01 DXLimC= 3.00D+00 Rises=F
 Variable       Old X    -DE/DX   Delta X   Delta X   Delta X     New X
                                 (Linear)    (Quad)   (Total)
    R1        2.88485  -0.00222  -0.00506  -0.00109  -0.00615   2.87870
    R2        2.06897  -0.00022  -0.00094   0.00064  -0.00030   2.06867
    R3        2.06968  -0.00052   0.00009  -0.00106  -0.00097   2.06871
    R4        2.06653   0.00043  -0.00043   0.00102   0.00058   2.06711
    R5        2.59369  -0.00218  -0.00171  -0.00161  -0.00332   2.59037
    R6        2.30839  -0.00120   0.00247  -0.00307  -0.00060   2.30779
    R7        1.90959   0.00021   0.00029   0.00010   0.00039   1.90998
    R8        1.90486   0.00021   0.00036   0.00011   0.00046   1.90533
    A1        1.90344  -0.00139   0.00038  -0.00401  -0.00362   1.89982
    A2        1.99626  -0.00090  -0.00599  -0.00001  -0.00600   1.99025
    A3        1.89295   0.00072   0.00419  -0.00196   0.00225   1.89520
    A4        1.90050   0.00084  -0.00150   0.00281   0.00132   1.90181
    A5        1.86572   0.00074   0.00723  -0.00121   0.00605   1.87177
    A6        1.90064   0.00010  -0.00347   0.00428   0.00081   1.90145
    A7        2.01699  -0.00052   0.00142  -0.00299  -0.00136   2.01563
    A8        2.13131   0.00064   0.00257  -0.00039   0.00239   2.13370
    A9        2.13444  -0.00007  -0.00434   0.00342  -0.00071   2.13373
   A10        2.04925   0.00030  -0.00236   0.00340   0.00104   2.05029
   A11        2.13774  -0.00049   0.00294  -0.00420  -0.00126   2.13648
   A12        2.06026   0.00028   0.00016   0.00143   0.00159   2.06185
    D1       -2.05341  -0.00053  -0.01473  -0.00189  -0.01658  -2.06999
    D2        1.05684   0.00141   0.03112  -0.00010   0.03095   1.08780
    D3        0.07907  -0.00111  -0.02049  -0.00126  -0.02170   0.05738
    D4       -3.09386   0.00083   0.02536   0.00052   0.02583  -3.06802
    D5        2.20391  -0.00105  -0.02589   0.00279  -0.02304   2.18088
    D6       -0.96902   0.00089   0.01996   0.00457   0.02450  -0.94452
    D7        3.00980   0.00109   0.03039  -0.00309   0.02737   3.03718
    D8        0.15886   0.00071   0.02744  -0.00590   0.02162   0.18049
    D9       -0.10039  -0.00086  -0.01535  -0.00480  -0.02022  -0.12061
   D10       -2.95133  -0.00125  -0.01829  -0.00760  -0.02597  -2.97730
         Item               Value     Threshold  Converged?
 Maximum Force            0.002224     0.000450     NO 
 RMS     Force            0.000957     0.000300     NO 
 Maximum Displacement     0.029509     0.001800     NO 
 RMS     Displacement     0.009572     0.001200     NO 
 Predicted change in Energy=-1.415559D-04
 GradGradGradGradGradGradGradGradGradGradGradGradGradGradGradGradGradGrad

 Leave Link  103 at Thu Mar 19 18:44:57 2026, MaxMem=   536870912 cpu:         0.0
 (Enter C:\G09W\l202.exe)
                          Input orientation:                          
 ---------------------------------------------------------------------
 Center     Atomic      Atomic             Coordinates (Angstroms)
 Number     Number       Type             X           Y           Z
 ---------------------------------------------------------------------
      1          6           0       -1.069113   -0.301602    0.001995
      2          6           0        0.180596    0.526334   -0.268783
      3          7           0        1.339079    0.043126    0.282060
      4          8           0        0.149366    1.560248   -0.917975
      5          1           0       -1.472736   -0.655229   -0.952147
[...]
            NFock=  9  Conv=0.36D-08     -V/T= 2.0093
 KE= 2.072869893936D+02 PE=-7.312055004717D+02 EE= 1.934659915921D+02
 Leave Link  502 at Thu Mar 19 18:45:36 2026, MaxMem=   536870912 cpu:         3.0
 (Enter C:\G09W\l701.exe)
 Compute integral first derivatives.
 ... and contract with generalized density number  0.
 Leave Link  701 at Thu Mar 19 18:45:36 2026, MaxMem=   536870912 cpu:         0.0
 (Enter C:\G09W\l702.exe)
 L702 exits ... SP integral derivatives will be done elsewhere.
 Leave Link  702 at Thu Mar 19 18:45:37 2026, MaxMem=   536870912 cpu:         0.0
 (Enter C:\G09W\l703.exe)
 Compute integral first derivatives, UseDBF=F ICtDFT=           0.
 Integral derivatives from FoFJK, PRISM(SPDF).
 Calling FoFJK, ICntrl=      2127 FMM=F ISym2X=0 I1Cent= 0 IOpClX= 0 NMat=1 NMatS=1 NMatT=0.
 FoFJK:  IHMeth= 1 ICntrl=    2127 DoSepK=F KAlg= 0 I1Cent=   0 FoldK=F
 IRaf=         0 NMat=   1 IRICut=       1 DoRegI=T DoRafI=F ISym2E= 0.
 FoFCou: FMM=F IPFlag=           0 FMFlag=      100000 FMFlg1=         800
         NFxFlg=           0 DoJE=F BraDBF=F KetDBF=F FulRan=T
         wScrn=  0.000000 ICntrl=    2127 IOpCl=  0 I1Cent=           0 NGrid=           0
         NMat0=    1 NMatS0=      1 NMatT0=    0 NMatD0=    1 NMtDS0=    0 NMtDT0=    0
 Symmetry not used in FoFCou.
 Leave Link  703 at Thu Mar 19 18:45:38 2026, MaxMem=   536870912 cpu:         1.0
 (Enter C:\G09W\l716.exe)
 Dipole        = 2.57187815D-02-1.45587074D+00 1.01517015D-01
 ***** Axes restored to original set *****
 -------------------------------------------------------------------
 Center     Atomic                   Forces (Hartrees/Bohr)
 Number     Number              X              Y              Z
 -------------------------------------------------------------------
      1        6           0.000015759    0.000001423    0.000002509
      2        6          -0.000046932    0.000015702   -0.000017147
      3        7           0.000037250   -0.000016147    0.000019248
      4        8           0.000003739   -0.000001218    0.000011514
      5        1          -0.000000781   -0.000004155   -0.000002618
      6        1           0.000001046   -0.000000806   -0.000002159
      7        1          -0.000002545   -0.000002014   -0.000006430
      8        1          -0.000005018    0.000009722   -0.000003501
      9        1          -0.000002518   -0.000002507   -0.000001417
 -------------------------------------------------------------------
 Cartesian Forces:  Max     0.000046932 RMS     0.000014137
 Leave Link  716 at Thu Mar 19 18:45:38 2026, MaxMem=   536870912 cpu:         0.0
 (Enter C:\G09W\l103.exe)

 GradGradGradGradGradGradGradGradGradGradGradGradGradGradGradGradGradGrad
 Berny optimization.
 Using GEDIIS/GDIIS optimizer.
 FormGI is forming the generalized inverse of G from B-inverse, IUseBI=4.
 Internal  Forces:  Max     0.000035349 RMS     0.000007794
 Search for a local minimum.
 Step number   9 out of a maximum of   40
 All quantities printed in internal units (Hartrees-Bohrs-Radians)
 RMS Force = .77942D-05 SwitMx=.10000D-02 MixMth= 2
 Mixed Optimization -- En-DIIS/RFO-DIIS
 Swapping is turned off.
 Update second derivatives using D2CorX and points    1    2    3    4    5
                                                      6    7    8    9
 DE= -6.67D-07 DEPred=-3.85D-07 R= 1.73D+00
 Trust test= 1.73D+00 RLast= 3.72D-02 DXMaxT set to 2.32D-01
 ITU=  0  1  1  0  1  1 -1  1  0
     Eigenvalues ---    0.00064   0.01003   0.02136   0.04039   0.06837
     Eigenvalues ---    0.07080   0.15193   0.16006   0.16093   0.16571
     Eigenvalues ---    0.16747   0.25121   0.25239   0.33466   0.34469
     Eigenvalues ---    0.34705   0.35499   0.45756   0.46093   0.53337
     Eigenvalues ---    0.92550
 En-DIIS/RFO-DIIS IScMMF=        0 using points:     9    8    7    6    5
 RFO step:  Lambda=-3.29907754D-09.
 NNeg= 0 NP= 5 Switch=  2.50D-03 Rises=F DC=  7.58D-07 SmlDif=  1.00D-05
 RMS Error=  0.2559892196D-04 NUsed= 5 EDIIS=F
 DidBck=F Rises=F RFO-DIIS coefs:    1.17304   -0.25966    0.12104    0.00174   -0.03615
 Iteration  1 RMS(Cart)=  0.00056570 RMS(Int)=  0.00000025
 Iteration  2 RMS(Cart)=  0.00000031 RMS(Int)=  0.00000009
 ITry= 1 IFail=0 DXMaxC= 1.29D-03 DCOld= 1.00D+10 DXMaxT= 2.32D-01 DXLimC= 3.00D+00 Rises=F
 Variable       Old X    -DE/DX   Delta X   Delta X   Delta X     New X
                                 (Linear)    (Quad)   (Total)
    R1        2.87844  -0.00001  -0.00005   0.00000  -0.00005   2.87839
    R2        2.06887   0.00000   0.00001   0.00000   0.00002   2.06888
    R3        2.06829   0.00000   0.00001  -0.00001   0.00000   2.06829
    R4        2.06670   0.00000   0.00000  -0.00001  -0.00001   2.06669
    R5        2.58764   0.00004  -0.00004   0.00006   0.00003   2.58766
    R6        2.30789  -0.00001   0.00001  -0.00001   0.00000   2.30789
    R7        1.90944   0.00000   0.00000  -0.00001  -0.00001   1.90943
    R8        1.90475   0.00000  -0.00001   0.00000  -0.00001   1.90474
    A1        1.89870   0.00000   0.00002   0.00001   0.00003   1.89873
    A2        1.98898   0.00000   0.00001   0.00000   0.00001   1.98899
    A3        1.89572   0.00000   0.00000  -0.00001  -0.00001   1.89571
    A4        1.90056   0.00000  -0.00004  -0.00001  -0.00005   1.90051
    A5        1.87351   0.00000  -0.00002  -0.00001  -0.00004   1.87347
    A6        1.90303   0.00000   0.00004   0.00001   0.00005   1.90308
    A7        2.01487   0.00000   0.00004  -0.00003   0.00001   2.01488
    A8        2.13434   0.00001   0.00000   0.00003   0.00003   2.13438
    A9        2.13395  -0.00001  -0.00004   0.00000  -0.00004   2.13391
   A10        2.05850  -0.00001   0.00003   0.00000   0.00003   2.05852
   A11        2.14200   0.00000   0.00021  -0.00003   0.00018   2.14218
   A12        2.06769   0.00001   0.00018   0.00002   0.00020   2.06789
    D1       -2.03413   0.00000   0.00105   0.00044   0.00149  -2.03264
    D2        1.11337   0.00000   0.00078   0.00042   0.00121   1.11458
    D3        0.08995   0.00000   0.00101   0.00044   0.00145   0.09140
    D4       -3.04574   0.00000   0.00075   0.00042   0.00117  -3.04457
    D5        2.21500   0.00000   0.00107   0.00045   0.00152   2.21652
    D6       -0.92068   0.00000   0.00080   0.00043   0.00124  -0.91944
    D7        3.06618   0.00000   0.00085  -0.00010   0.00075   3.06693
    D8        0.11280   0.00000  -0.00178   0.00000  -0.00177   0.11102
    D9       -0.08132   0.00000   0.00111  -0.00008   0.00103  -0.08029
   D10       -3.03470   0.00000  -0.00151   0.00002  -0.00149  -3.03619
         Item               Value     Threshold  Converged?
 Maximum Force            0.000035     0.000450     YES
 RMS     Force            0.000008     0.000300     YES
 Maximum Displacement     0.001288     0.001800     YES
 RMS     Displacement     0.000566     0.001200     YES
 Predicted change in Energy=-9.679443D-09
 Optimization completed.
    -- Stationary point found.
                           ----------------------------
                           !   Optimized Parameters   !
                           ! (Angstroms and Degrees)  !
 --------------------------                            --------------------------
 ! Name  Definition              Value          Derivative Info.                !
 --------------------------------------------------------------------------------
 ! R1    R(1,2)                  1.5232         -DE/DX =    0.0                 !
 ! R2    R(1,5)                  1.0948         -DE/DX =    0.0                 !
 ! R3    R(1,6)                  1.0945         -DE/DX =    0.0                 !
 ! R4    R(1,7)                  1.0936         -DE/DX =    0.0                 !
 ! R5    R(2,3)                  1.3693         -DE/DX =    0.0                 !
 ! R6    R(2,4)                  1.2213         -DE/DX =    0.0                 !
 ! R7    R(3,8)                  1.0104         -DE/DX =    0.0                 !
 ! R8    R(3,9)                  1.0079         -DE/DX =    0.0                 !
 ! A1    A(2,1,5)              108.7874         -DE/DX =    0.0                 !
 ! A2    A(2,1,6)              113.9601         -DE/DX =    0.0                 !
 ! A3    A(2,1,7)              108.6167         -DE/DX =    0.0                 !
 ! A4    A(5,1,6)              108.8943         -DE/DX =    0.0                 !
 ! A5    A(5,1,7)              107.3441         -DE/DX =    0.0                 !
 ! A6    A(6,1,7)              109.0355         -DE/DX =    0.0                 !
 ! A7    A(1,2,3)              115.4438         -DE/DX =    0.0                 !
 ! A8    A(1,2,4)              122.2889         -DE/DX =    0.0                 !
 ! A9    A(3,2,4)              122.2664         -DE/DX =    0.0                 !
 ! A10   A(2,3,8)              117.9433         -DE/DX =    0.0                 !
 ! A11   A(2,3,9)              122.7276         -DE/DX =    0.0                 !
 ! A12   A(8,3,9)              118.4701         -DE/DX =    0.0                 !
 ! D1    D(5,1,2,3)           -116.5468         -DE/DX =    0.0                 !
 ! D2    D(5,1,2,4)             63.7916         -DE/DX =    0.0                 !
 ! D3    D(6,1,2,3)              5.1535         -DE/DX =    0.0                 !
 ! D4    D(6,1,2,4)           -174.508          -DE/DX =    0.0                 !
 ! D5    D(7,1,2,3)            126.9104         -DE/DX =    0.0                 !
 ! D6    D(7,1,2,4)            -52.7512         -DE/DX =    0.0                 !
 ! D7    D(1,2,3,8)            175.679          -DE/DX =    0.0                 !
 ! D8    D(1,2,3,9)              6.4627         -DE/DX =    0.0                 !
 ! D9    D(4,2,3,8)             -4.6594         -DE/DX =    0.0                 !
 ! D10   D(4,2,3,9)           -173.8756         -DE/DX =    0.0                 !
 --------------------------------------------------------------------------------
 Lowest energy point so far.  Saving SCF results.
 GradGradGradGradGradGradGradGradGradGradGradGradGradGradGradGradGradGrad

 Largest change from initial coordinates is atom    9       0.093 Angstoms.
 Leave Link  103 at Thu Mar 19 18:45:38 2026, MaxMem=   536870912 cpu:         0.0
 (Enter C:\G09W\l202.exe)
                          Input orientation:                          
 ---------------------------------------------------------------------
 Center     Atomic      Atomic             Coordinates (Angstroms)
 Number     Number       Type             X           Y           Z
 ---------------------------------------------------------------------
      1          6           0       -1.069210   -0.300944    0.002624
      2          6           0        0.179456    0.528512   -0.267539
      3          7           0        1.341618    0.030592    0.258283
      4          8           0        0.145610    1.570125   -0.904268
      5          1           0       -1.464471   -0.664182   -0.951528
      6          1           0       -0.900230   -1.155889    0.664759
      7          1           0       -1.830381    0.347877    0.445024
      8          1           0        2.202865    0.514508    0.046036
      9          1           0        1.394744   -0.870598    0.706611
 ---------------------------------------------------------------------
                    Distance matrix (angstroms):
                    1          2          3          4          5
     1  C    0.000000
     2  C    1.523205   0.000000
     3  N    2.446910   1.369319   0.000000
     4  O    2.408140   1.221280   2.269828   0.000000
     5  H    1.094796   2.143094   3.133765   2.754400   0.000000
     6  H    1.094490   2.207285   2.568820   3.314631   1.781159
     7  H    1.093648   2.140051   3.193292   2.686823   1.763097
     8  H    3.372436   2.047611   1.010431   2.499940   3.979170
     9  H    2.625104   2.093657   1.007950   3.179998   3.311667
                    6          7          8          9
     6  H    0.000000
     7  H    1.781791   0.000000
     8  H    3.578022   4.056356   0.000000
     9  H    2.313016   3.457533   1.734340   0.000000
 Stoichiometry    C2H5NO
 Framework group  C1[X(C2H5NO)]
 Deg. of freedom    21
 Full point group                 C1      NOp   1
 RotChk:  IX=0 Diff= 6.01D-16
 Largest Abelian subgroup         C1      NOp   1
 Largest concise Abelian subgroup C1      NOp   1
                         Standard orientation:                         
 ---------------------------------------------------------------------
 Center     Atomic      Atomic             Coordinates (Angstroms)
 Number     Number       Type             X           Y           Z
 ---------------------------------------------------------------------
      1          6           0        1.365930   -0.338571    0.000100
      2          6           0       -0.077638    0.147493   -0.002587
      3          7           0       -1.029692   -0.836553   -0.019277
      4          8           0       -0.366488    1.334108    0.003233
      5          1           0        1.842584   -0.022708    0.933700
      6          1           0        1.469852   -1.423363   -0.101559
      7          1           0        1.900136    0.149349   -0.820037
      8          1           0       -1.999005   -0.558719    0.045623
      9          1           0       -0.803568   -1.815078    0.066274
 ---------------------------------------------------------------------
 Rotational constants (GHZ):     10.7713966      9.2064225      5.1225574
 Leave Link  202 at Thu Mar 19 18:45:38 2026, MaxMem=   536870912 cpu:         0.0
 (Enter C:\G09W\l601.exe)
 Copying SCF densities to generalized density rwf, IOpCl= 0 IROHF=0.

 **********************************************************************

            Population analysis using the SCF density.

 **********************************************************************

 Orbital symmetries:
       Occupied  (A) (A) (A) (A) (A) (A) (A) (A) (A) (A) (A) (A)
                 (A) (A) (A) (A)
       Virtual   (A) (A) (A) (A) (A) (A) (A) (A) (A) (A) (A) (A)
                 (A) (A) (A) (A) (A) (A) (A) (A) (A) (A) (A) (A)
                 (A) (A) (A) (A) (A) (A) (A) (A) (A) (A) (A) (A)
                 (A) (A) (A) (A) (A) (A) (A) (A) (A) (A) (A) (A)
                 (A) (A) (A) (A) (A) (A)
 The electronic state is 1-A.
 Alpha  occ. eigenvalues --  -19.10297 -14.35620 -10.28716 -10.19093  -1.02353
 Alpha  occ. eigenvalues --   -0.89985  -0.73558  -0.58738  -0.53819  -0.46510
 Alpha  occ. eigenvalues --   -0.44139  -0.40003  -0.39318  -0.36173  -0.26347
 Alpha  occ. eigenvalues --   -0.24345
 Alpha virt. eigenvalues --    0.03495   0.06949   0.12107   0.13293   0.16847
 Alpha virt. eigenvalues --    0.18042   0.22710   0.31005   0.39174   0.52946
 Alpha virt. eigenvalues --    0.53479   0.58206   0.63248   0.65819   0.67388
 Alpha virt. eigenvalues --    0.70224   0.72471   0.77039   0.85020   0.87391
 Alpha virt. eigenvalues --    0.88298   0.89394   0.92327   0.95066   1.04466
 Alpha virt. eigenvalues --    1.10119   1.20004   1.26359   1.34771   1.35067
 Alpha virt. eigenvalues --    1.44399   1.63049   1.70278   1.76511   1.82139
 Alpha virt. eigenvalues --    1.82658   1.87886   1.96912   2.02234   2.12963
 Alpha virt. eigenvalues --    2.21408   2.22173   2.26324   2.39211   2.43829
 Alpha virt. eigenvalues --    2.59217   2.65293   2.80553   2.97408   3.06605
 Alpha virt. eigenvalues --    3.78629   4.01656   4.16193   4.46963
          Condensed to atoms (all electrons):
               1          2          3          4          5          6
     1  C    5.340481   0.330176  -0.126836  -0.087429   0.364308   0.331297
     2  C    0.330176   4.265422   0.280231   0.618184  -0.020630  -0.017978
     3  N   -0.126836   0.280231   7.090676  -0.092381   0.001513   0.005384
     4  O   -0.087429   0.618184  -0.092381   8.042074   0.000078   0.003435
     5  H    0.364308  -0.020630   0.001513   0.000078   0.518822  -0.026589
     6  H    0.331297  -0.017978   0.005384   0.003435  -0.026589   0.589976
     7  H    0.364681  -0.020619   0.002485   0.000772  -0.022325  -0.026151
     8  H    0.008937  -0.006241   0.286670   0.006951  -0.000225  -0.000256
     9  H    0.004267  -0.007452   0.291458   0.003613  -0.000127   0.000576
               7          8          9
     1  C    0.364681   0.008937   0.004267
     2  C   -0.020619  -0.006241  -0.007452
     3  N    0.002485   0.286670   0.291458
     4  O    0.000772   0.006951   0.003613
     5  H   -0.022325  -0.000225  -0.000127
     6  H   -0.026151  -0.000256   0.000576
     7  H    0.513445  -0.000194  -0.000093
     8  H   -0.000194   0.385362  -0.020947
     9  H   -0.000093  -0.020947   0.396656
 Mulliken charges:
               1
     1  C   -0.529883
     2  C    0.578907
     3  N   -0.739199
     4  O   -0.495298
     5  H    0.185174
     6  H    0.140306
     7  H    0.187999
     8  H    0.339943
     9  H    0.332050
 Sum of Mulliken charges =   0.00000
 Mulliken charges with hydrogens summed into heavy atoms:
               1
     1  C   -0.016403
     2  C    0.578907
     3  N   -0.067206
     4  O   -0.495298
 Electronic spatial extent (au):  <R**2>=            268.8988
 Charge=              0.0000 electrons
 Dipole moment (field-independent basis, Debye):
    X=              0.0654    Y=             -3.7005    Z=              0.2580  Tot=              3.7100
 Quadrupole moment (field-independent basis, Debye-Ang):
   XX=            -20.0966   YY=            -25.4754   ZZ=            -24.5035
   XY=              2.3590   XZ=             -0.3319   YZ=             -0.3833
 Traceless Quadrupole moment (field-independent basis, Debye-Ang):
   XX=              3.2619   YY=             -2.1169   ZZ=             -1.1450
   XY=              2.3590   XZ=             -0.3319   YZ=             -0.3833
 Octapole moment (field-independent basis, Debye-Ang**2):
  XXX=            -11.4206  YYY=            -11.3768  ZZZ=              0.4284  XYY=             -1.8904
  XXY=             -1.2096  XXZ=              0.5565  XZZ=              0.7035  YZZ=              2.1202
  YYZ=              0.4031  XYZ=              0.3141
 Hexadecapole moment (field-independent basis, Debye-Ang**3):
 XXXX=           -153.1120 YYYY=           -120.2430 ZZZZ=            -28.1442 XXXY=              8.0930
 XXXZ=             -1.1765 YYYX=              7.3052 YYYZ=             -0.8634 ZZZX=              0.0793
 ZZZY=             -0.3689 XXYY=            -49.5553 XXZZ=            -32.9199 YYZZ=            -27.2746
 XXYZ=             -0.7615 YYXZ=             -0.7795 ZZXY=              0.1882
 N-N= 1.212403163960D+02 E-N=-7.312055003720D+02  KE= 2.072869893936D+02
 No NMR shielding tensors so no spin-rotation constants.
 Leave Link  601 at Thu Mar 19 18:45:39 2026, MaxMem=   536870912 cpu:         0.0
 (Enter C:\G09W\l9999.exe)
 1|1|UNPC-DESKTOP-GS7R1K3|FOpt|RB3LYP|6-31G(d)|C2H5N1O1|1172|19-Mar-202
 6|0||#p opt B3LYP/6-31G(d)||acetamide||0,1|C,-1.0692102447,-0.30094407
 68,0.0026241209|C,0.1794557884,0.5285119266,-0.2675392716|N,1.34161755
 53,0.030591526,0.2582825422|O,0.1456102873,1.5701247762,-0.9042676016|
 H,-1.4644706161,-0.6641822414,-0.951527862|H,-0.9002296271,-1.15588924
 72,0.6647590013|H,-1.830380685,0.3478773303,0.4450235573|H,2.202864953
 ,0.5145075817,0.0460355821|H,1.394743589,-0.8705975754,0.7066109315||V
 ersion=EM64W-G09RevD.01|State=1-A|HF=-209.2122031|RMSD=3.577e-009|RMSF
 =1.414e-005|Dipole=0.3713227,-1.2338895,0.6856842|Quadrupole=3.0443857
 ,-1.7195984,-1.3247873,-0.2957462,0.5089218,0.650363|PG=C01 [X(C2H5N1O
 1)]||@


 CHEMISTRY BEGAN BY SAYING IT WOULD CHANGE THE BASER
 METALS INTO GOLD.  BY NOT DOING THAT IT HAS DONE MUCH
 GREATER THINGS.  --  RALPH WALDO EMERSON
 Job cpu time:       0 days  0 hours  1 minutes  5.0 seconds.
 File lengths (MBytes):  RWF=      5 Int=      0 D2E=      0 Chk=      2 Scr=      1
 Normal termination of Gaussian 09 at Thu Mar 19 18:45:39 2026.
