 Entering Gaussian System, Link 0=C:\G09W\g09.exe
 Input=phenol_xtb.com
 Output=C:\workspace\delta_chem\benchmark_results\phenol\phenol_xtb.out
 Initial command:
 C:\G09W\l1.exe ".\Gau-4584.inp" "C:\workspace\delta_chem\benchmark_results\phenol\phenol_xtb.out" /scrdir=".\"
 Entering Link 1 = C:\G09W\l1.exe PID=      8140.
  
 Copyright (c) 1988,1990,1992,1993,1995,1998,2003,2009,2013,
            Gaussian, Inc.  All Rights Reserved.
  
 This is part of the Gaussian(R) 09 program.  It is based on
 the Gaussian(R) 03 system (copyright 2003, Gaussian, Inc.),
 the Gaussian(R) 98 system (copyright 1998, Gaussian, Inc.),
 the Gaussian(R) 94 system (copyright 1995, Gaussian, Inc.),
 the Gaussian 92(TM) system (copyright 1992, Gaussian, Inc.),
 the Gaussian 90(TM) system (copyright 1990, Gaussian, Inc.),
 the Gaussian 88(TM) system (copyright 1988, Gaussian, Inc.),
 the Gaussian 86(TM) system (copyright 1986, Carnegie Mellon
 University), and the Gaussian 82(TM) system (copyright 1983,
 Carnegie Mellon University). Gaussian is a federally registered
 trademark of Gaussian, Inc.
  
 This software contains proprietary and confidential information,
 including trade secrets, belonging to Gaussian, Inc.
  
 This software is provided under written license and may be
 used, copied, transmitted, or stored only in accord with that
 written license.
  
 The following legend is applicable only to US Government
 contracts under FAR:
  
                    RESTRICTED RIGHTS LEGEND
  
 Use, reproduction and disclosure by the US Government is
 subject to restrictions as set forth in subparagraphs (a)
 and (c) of the Commercial Computer Software - Restricted
 Rights clause in FAR 52.227-19.
  
 Gaussian, Inc.
 340 Quinnipiac St., Bldg. 40, Wallingford CT 06492
  
  
 ---------------------------------------------------------------
 Warning -- This program may not be used in any manner that
 competes with the business of Gaussian, Inc. or will provide
 assistance to any competitor of Gaussian, Inc.  The licensee
 of this program is prohibited from giving any competitor of
 Gaussian, Inc. access to this program.  By using this program,
 the user acknowledges that Gaussian, Inc. is engaged in the
 business of creating and licensing software in the field of
 computational chemistry and represents and warrants to the
 licensee that it is not a competitor of Gaussian, Inc. and that
 it will not use this program in any manner prohibited above.
 ---------------------------------------------------------------
  

 Cite this work as:
 Gaussian 09, Revision D.01,
 M. J. Frisch, G. W. Trucks, H. B. Schlegel, G. E. Scuseria, 
 M. A. Robb, J. R. Cheeseman, G. Scalmani, V. Barone, B. Mennucci, 
 G. A. Petersson, H. Nakatsuji, M. Caricato, X. Li, H. P. Hratchian, 
 A. F. Izmaylov, J. Bloino, G. Zheng, J. L. Sonnenberg, M. Hada, 
 M. Ehara, K. Toyota, R. Fukuda, J. Hasegawa, M. Ishida, T. Nakajima, 
 Y. Honda, O. Kitao, H. Nakai, T. Vreven, J. A. Montgomery, Jr., 
 J. E. Peralta, F. Ogliaro, M. Bearpark, J. J. Heyd, E. Brothers, 
 K. N. Kudin, V. N. Staroverov, T. Keith, R. Kobayashi, J. Normand, 
 K. Raghavachari, A. Rendell, J. C. Burant, S. S. Iyengar, J. Tomasi, 
 M. Cossi, N. Rega, J. M. Millam, M. Klene, J. E. Knox, J. B. Cross, 
 V. Bakken, C. Adamo, J. Jaramillo, R. Gomperts, R. E. Stratmann, 
 O. Yazyev, A. J. Austin, R. Cammi, C. Pomelli, J. W. Ochterski, 
 R. L. Martin, K. Morokuma, V. G. Zakrzewski, G. A. Voth, 
 P. Salvador, J. J. Dannenberg, S. Dapprich, A. D. Daniels, 
 O. Farkas, J. B. Foresman, J. V. Ortiz, J. Cioslowski, 
 and D. J. Fox, Gaussian, Inc., Wallingford CT, 2013.
 
 ******************************************
 Gaussian 09:  EM64W-G09RevD.01 13-Apr-2013
                19-Mar-2026 
 ******************************************
 %NProcShared=4
 Will use up to    4 processors via shared memory.
 %Mem=4GB
 %Chk=phenol_xtb.chk
 ---------------------
 #p opt B3LYP/6-31G(d)
 ---------------------
 1/14=-1,18=20,19=15,26=3,38=1/1,3;
 2/9=110,12=2,17=6,18=5,40=1/2;
 3/5=1,6=6,7=1,11=2,16=1,25=1,30=1,71=1,74=-5/1,2,3;
 4//1;
 5/5=2,38=5/2;
 6/7=2,8=2,9=2,10=2,28=1/1;
 7//1,2,3,16;
 1/14=-1,18=20,19=15,26=3/3(2);
 2/9=110/2;
 99//99;
 2/9=110/2;
 3/5=1,6=6,7=1,11=2,16=1,25=1,30=1,71=1,74=-5/1,2,3;
 4/5=5,16=3,69=1/1;
 5/5=2,38=5/2;
 7//1,2,3,16;
 1/14=-1,18=20,19=15,26=3/3(-5);
 2/9=110/2;
 6/7=2,8=2,9=2,10=2,19=2,28=1/1;
 99/9=1/99;
 Leave Link    1 at Thu Mar 19 17:17:43 2026, MaxMem=   536870912 cpu:         0.0
 (Enter C:\G09W\l101.exe)
 ------------
 phenol [xtb]
 ------------
 Symbolic Z-matrix:
 Charge =  0 Multiplicity = 1
 O                     0.74187  -0.51073   0.11412 
 C                    -0.04837  -1.24557  -1.67418 
 C                     1.96356   1.18097  -0.59673 
 C                    -0.41354   1.03135  -1.06493 
 C                    -0.20515   1.13555   1.23112 
 C                    -1.61793  -0.58598   0.03724 
 C                    -0.18314  -1.1827    1.80454 
 H                     1.03446  -0.02392  -1.19021 
 H                     0.57537   1.93647  -0.05626 
 H                     1.0641    0.02454   1.33952 
 H                    -1.34537  -0.24989  -1.54552 
 H                    -0.19638  -1.51437   0.05594 
 H                    -1.36948   0.00429   1.54534 
 
 Add virtual bond connecting atoms H12        and O1         Dist= 2.60D+00.
 Add virtual bond connecting atoms H10        and O1         Dist= 2.60D+00.
 Add virtual bond connecting atoms H8         and O1         Dist= 2.69D+00.
 Add virtual bond connecting atoms H8         and C3         Dist= 3.09D+00.
 Add virtual bond connecting atoms H13        and C6         Dist= 3.10D+00.
 Add virtual bond connecting atoms H11        and C2         Dist= 3.10D+00.
 Add virtual bond connecting atoms H11        and C6         Dist= 3.10D+00.
 Add virtual bond connecting atoms H13        and C5         Dist= 3.12D+00.
 Add virtual bond connecting atoms H11        and C4         Dist= 3.13D+00.
 Add virtual bond connecting atoms H9         and C3         Dist= 3.16D+00.
 Add virtual bond connecting atoms H8         and C2         Dist= 3.22D+00.
 Add virtual bond connecting atoms H8         and C4         Dist= 3.39D+00.
 Add virtual bond connecting atoms H9         and C4         Dist= 3.17D+00.
 Add virtual bond connecting atoms H9         and C5         Dist= 3.22D+00.
 Add virtual bond connecting atoms H10        and C5         Dist= 3.19D+00.
 Add virtual bond connecting atoms H10        and C7         Dist= 3.40D+00.
 Add virtual bond connecting atoms H12        and C7         Dist= 3.36D+00.
 Add virtual bond connecting atoms H13        and C7         Dist= 3.21D+00.
 NAtoms=     13 NQM=       13 NQMF=       0 NMMI=      0 NMMIF=      0
                NMic=       0 NMicF=      0.
                    Isotopes and Nuclear Properties:
 (Nuclear quadrupole moments (NQMom) in fm**2, nuclear magnetic moments (NMagM)
  in nuclear magnetons)

  Atom         1           2           3           4           5           6           7           8           9          10
 IAtWgt=          16          12          12          12          12          12          12           1           1           1
 AtmWgt=  15.9949146  12.0000000  12.0000000  12.0000000  12.0000000  12.0000000  12.0000000   1.0078250   1.0078250   1.0078250
 NucSpn=           0           0           0           0           0           0           0           1           1           1
 AtZEff=   0.0000000   0.0000000   0.0000000   0.0000000   0.0000000   0.0000000   0.0000000   0.0000000   0.0000000   0.0000000
 NQMom=    0.0000000   0.0000000   0.0000000   0.0000000   0.0000000   0.0000000   0.0000000   0.0000000   0.0000000   0.0000000
 NMagM=    0.0000000   0.0000000   0.0000000   0.0000000   0.0000000   0.0000000   0.0000000   2.7928460   2.7928460   2.7928460
 AtZNuc=   8.0000000   6.0000000   6.0000000   6.0000000   6.0000000   6.0000000   6.0000000   1.0000000   1.0000000   1.0000000

  Atom        11          12          13
 IAtWgt=           1           1           1
 AtmWgt=   1.0078250   1.0078250   1.0078250
 NucSpn=           1           1           1
 AtZEff=   0.0000000   0.0000000   0.0000000
 NQMom=    0.0000000   0.0000000   0.0000000
 NMagM=    2.7928460   2.7928460   2.7928460
 AtZNuc=   1.0000000   1.0000000   1.0000000
 Leave Link  101 at Thu Mar 19 17:17:43 2026, MaxMem=   536870912 cpu:         0.0
 (Enter C:\G09W\l103.exe)

 GradGradGradGradGradGradGradGradGradGradGradGradGradGradGradGradGradGrad
 Berny optimization.
 Initialization pass.
                           ----------------------------
                           !    Initial Parameters    !
                           ! (Angstroms and Degrees)  !
 --------------------------                            --------------------------
 ! Name  Definition              Value          Derivative Info.                !
 --------------------------------------------------------------------------------
 ! R1    R(1,8)                  1.4226         estimate D2E/DX2                !
 ! R2    R(1,10)                 1.3755         estimate D2E/DX2                !
 ! R3    R(1,12)                 1.3751         estimate D2E/DX2                !
 ! R4    R(2,8)                  1.7027         estimate D2E/DX2                !
 ! R5    R(2,11)                 1.6402         estimate D2E/DX2                !
 ! R6    R(3,8)                  1.6332         estimate D2E/DX2                !
 ! R7    R(3,9)                  1.6703         estimate D2E/DX2                !
 ! R8    R(4,8)                  1.7961         estimate D2E/DX2                !
 ! R9    R(4,9)                  1.6777         estimate D2E/DX2                !
 ! R10   R(4,11)                 1.6556         estimate D2E/DX2                !
 ! R11   R(5,9)                  1.7053         estimate D2E/DX2                !
 ! R12   R(5,10)                 1.6903         estimate D2E/DX2                !
 ! R13   R(5,13)                 1.6535         estimate D2E/DX2                !
 ! R14   R(6,11)                 1.6409         estimate D2E/DX2                !
 ! R15   R(6,13)                 1.6384         estimate D2E/DX2                !
 ! R16   R(7,10)                 1.797          estimate D2E/DX2                !
 ! R17   R(7,12)                 1.7798         estimate D2E/DX2                !
 ! R18   R(7,13)                 1.6981         estimate D2E/DX2                !
 ! A1    A(8,1,10)             129.4536         estimate D2E/DX2                !
 ! A2    A(8,1,12)             110.5662         estimate D2E/DX2                !
 ! A3    A(10,1,12)            118.7871         estimate D2E/DX2                !
 ! A4    A(8,2,11)              92.5816         estimate D2E/DX2                !
 ! A5    A(8,3,9)               88.7668         estimate D2E/DX2                !
 ! A6    A(8,4,9)               83.3215         estimate D2E/DX2                !
 ! A7    A(8,4,11)              88.7867         estimate D2E/DX2                !
 ! A8    A(9,4,11)             157.4934         estimate D2E/DX2                !
 ! A9    A(9,5,10)              90.7692         estimate D2E/DX2                !
 ! A10   A(9,5,13)             141.9132         estimate D2E/DX2                !
 ! A11   A(10,5,13)             93.835          estimate D2E/DX2                !
 ! A12   A(11,6,13)            142.0811         estimate D2E/DX2                !
 ! A13   A(10,7,12)             82.8838         estimate D2E/DX2                !
 ! A14   A(10,7,13)             88.6128         estimate D2E/DX2                !
 ! A15   A(12,7,13)             88.5732         estimate D2E/DX2                !
 ! A16   A(1,8,2)               83.3553         estimate D2E/DX2                !
 ! A17   A(1,8,3)               92.0798         estimate D2E/DX2                !
 ! A18   A(1,8,4)               88.3548         estimate D2E/DX2                !
 ! A19   A(2,8,4)               85.9098         estimate D2E/DX2                !
 ! A20   A(3,8,4)               89.9904         estimate D2E/DX2                !
 ! A21   A(3,9,4)               92.9419         estimate D2E/DX2                !
 ! A22   A(3,9,5)              114.3454         estimate D2E/DX2                !
 ! A23   A(4,9,5)               86.0261         estimate D2E/DX2                !
 ! A24   A(1,10,5)              91.3032         estimate D2E/DX2                !
 ! A25   A(1,10,7)              78.8432         estimate D2E/DX2                !
 ! A26   A(5,10,7)              86.3872         estimate D2E/DX2                !
 ! A27   A(2,11,4)              92.7218         estimate D2E/DX2                !
 ! A28   A(2,11,6)              94.7423         estimate D2E/DX2                !
 ! A29   A(4,11,6)              88.3951         estimate D2E/DX2                !
 ! A30   A(1,12,7)              79.4761         estimate D2E/DX2                !
 ! A31   A(5,13,6)             100.2728         estimate D2E/DX2                !
 ! A32   A(5,13,7)              90.8765         estimate D2E/DX2                !
 ! A33   A(6,13,7)              89.6909         estimate D2E/DX2                !
 ! A34   L(2,8,3,1,-1)         175.4351         estimate D2E/DX2                !
 ! A35   L(2,8,3,1,-2)         183.9968         estimate D2E/DX2                !
 ! D1    D(10,1,8,2)          -169.8487         estimate D2E/DX2                !
 ! D2    D(10,1,8,3)             6.1546         estimate D2E/DX2                !
 ! D3    D(10,1,8,4)           -83.7761         estimate D2E/DX2                !
 ! D4    D(12,1,8,2)            -2.7128         estimate D2E/DX2                !
 ! D5    D(12,1,8,3)           173.2904         estimate D2E/DX2                !
 ! D6    D(12,1,8,4)            83.3598         estimate D2E/DX2                !
 ! D7    D(8,1,10,5)            79.2692         estimate D2E/DX2                !
 ! D8    D(8,1,10,7)           165.3282         estimate D2E/DX2                !
 ! D9    D(12,1,10,5)          -86.9714         estimate D2E/DX2                !
 ! D10   D(12,1,10,7)           -0.9125         estimate D2E/DX2                !
 ! D11   D(8,1,12,7)          -167.7687         estimate D2E/DX2                !
 ! D12   D(10,1,12,7)            0.9193         estimate D2E/DX2                !
 ! D13   D(11,2,8,1)            88.752          estimate D2E/DX2                !
 ! D14   D(11,2,8,4)            -0.0649         estimate D2E/DX2                !
 ! D15   D(8,2,11,4)             0.0703         estimate D2E/DX2                !
 ! D16   D(8,2,11,6)           -88.5435         estimate D2E/DX2                !
 ! D17   D(9,3,8,1)            -71.8012         estimate D2E/DX2                !
 ! D18   D(9,3,8,4)             16.5522         estimate D2E/DX2                !
 ! D19   D(8,3,9,4)            -17.7824         estimate D2E/DX2                !
 ! D20   D(8,3,9,5)             69.1845         estimate D2E/DX2                !
 ! D21   D(9,4,8,1)             75.4915         estimate D2E/DX2                !
 ! D22   D(9,4,8,2)            158.9455         estimate D2E/DX2                !
 ! D23   D(9,4,8,3)            -16.5894         estimate D2E/DX2                !
 ! D24   D(11,4,8,1)           -83.3897         estimate D2E/DX2                !
 ! D25   D(11,4,8,2)             0.0643         estimate D2E/DX2                !
 ! D26   D(11,4,8,3)          -175.4706         estimate D2E/DX2                !
 ! D27   D(8,4,9,3)             16.2319         estimate D2E/DX2                !
 ! D28   D(8,4,9,5)            -97.9857         estimate D2E/DX2                !
 ! D29   D(11,4,9,3)            86.4593         estimate D2E/DX2                !
 ! D30   D(11,4,9,5)           -27.7584         estimate D2E/DX2                !
 ! D31   D(8,4,11,2)            -0.0666         estimate D2E/DX2                !
 ! D32   D(8,4,11,6)            94.6063         estimate D2E/DX2                !
 ! D33   D(9,4,11,2)           -69.2732         estimate D2E/DX2                !
 ! D34   D(9,4,11,6)            25.3997         estimate D2E/DX2                !
 ! D35   D(10,5,9,3)             5.9091         estimate D2E/DX2                !
 ! D36   D(10,5,9,4)            97.3437         estimate D2E/DX2                !
 ! D37   D(13,5,9,3)           -91.3043         estimate D2E/DX2                !
 ! D38   D(13,5,9,4)             0.1303         estimate D2E/DX2                !
 ! D39   D(9,5,10,1)           -67.4807         estimate D2E/DX2                !
 ! D40   D(9,5,10,7)          -146.2146         estimate D2E/DX2                !
 ! D41   D(13,5,10,1)           74.6874         estimate D2E/DX2                !
 ! D42   D(13,5,10,7)           -4.0465         estimate D2E/DX2                !
 ! D43   D(9,5,13,6)            10.5921         estimate D2E/DX2                !
 ! D44   D(9,5,13,7)           100.4367         estimate D2E/DX2                !
 ! D45   D(10,5,13,6)          -85.5701         estimate D2E/DX2                !
 ! D46   D(10,5,13,7)            4.2746         estimate D2E/DX2                !
 ! D47   D(13,6,11,2)           99.9453         estimate D2E/DX2                !
 ! D48   D(13,6,11,4)            7.3464         estimate D2E/DX2                !
 ! D49   D(11,6,13,5)          -16.0631         estimate D2E/DX2                !
 ! D50   D(11,6,13,7)         -106.8979         estimate D2E/DX2                !
 ! D51   D(12,7,10,1)            0.6226         estimate D2E/DX2                !
 ! D52   D(12,7,10,5)           92.6674         estimate D2E/DX2                !
 ! D53   D(13,7,10,1)          -88.1123         estimate D2E/DX2                !
 ! D54   D(13,7,10,5)            3.9324         estimate D2E/DX2                !
 ! D55   D(10,7,12,1)           -0.6215         estimate D2E/DX2                !
 ! D56   D(13,7,12,1)           88.1584         estimate D2E/DX2                !
 ! D57   D(10,7,13,5)           -4.0124         estimate D2E/DX2                !
 ! D58   D(10,7,13,6)           96.2569         estimate D2E/DX2                !
 ! D59   D(12,7,13,5)          -86.9268         estimate D2E/DX2                !
 ! D60   D(12,7,13,6)           13.3426         estimate D2E/DX2                !
 --------------------------------------------------------------------------------
 Trust Radius=3.00D-01 FncErr=1.00D-07 GrdErr=1.00D-06
 Number of steps in this run=    100 maximum allowed number of steps=    100.
 GradGradGradGradGradGradGradGradGradGradGradGradGradGradGradGradGradGrad

 Leave Link  103 at Thu Mar 19 17:17:43 2026, MaxMem=   536870912 cpu:         0.0
 (Enter C:\G09W\l202.exe)
                          Input orientation:                          
 ---------------------------------------------------------------------
 Center     Atomic      Atomic             Coordinates (Angstroms)
 Number     Number       Type             X           Y           Z
 ---------------------------------------------------------------------
      1          8           0        0.741871   -0.510734    0.114122
      2          6           0       -0.048365   -1.245573   -1.674179
      3          6           0        1.963560    1.180966   -0.596731
      4          6           0       -0.413539    1.031350   -1.064926
      5          6           0       -0.205153    1.135548    1.231117
      6          6           0       -1.617928   -0.585983    0.037245
      7          6           0       -0.183145   -1.182702    1.804539
      8          1           0        1.034463   -0.023918   -1.190206
      9          1           0        0.575374    1.936470   -0.056261
     10          1           0        1.064098    0.024545    1.339518
     11          1           0       -1.345372   -0.249890   -1.545522
     12          1           0       -0.196382   -1.514369    0.055943
     13          1           0       -1.369484    0.004289    1.545339
 ---------------------------------------------------------------------
                    Distance matrix (angstroms):
                    1          2          3          4          5
     1  O    0.000000
     2  C    2.088655   0.000000
     3  C    2.204469   3.331191   0.000000
     4  C    2.259016   2.385145   2.427384   0.000000
     5  C    2.203356   3.759663   2.836619   2.307834   0.000000
     6  C    2.362250   2.414033   4.043648   2.298064   2.526843
     7  C    2.040761   3.481896   3.995168   3.631658   2.388217
     8  H    1.422629   1.702700   1.633150   1.796106   2.956995
     9  H    2.458772   3.623825   1.670316   1.677676   1.705298
    10  H    1.375481   3.454438   2.428044   2.996401   1.690289
    11  H    2.679374   1.640171   3.727813   1.655555   3.305944
    12  H    1.375131   1.757123   3.515134   2.790016   2.898823
    13  H    2.602201   3.697675   4.133063   2.963472   1.653526
                    6          7          8          9         10
     6  C    0.000000
     7  C    2.353297   0.000000
     8  H    2.976194   3.434218   0.000000
     9  H    3.343962   3.710413   2.310782   0.000000
    10  H    3.043341   1.797027   2.530362   2.417128   0.000000
    11  H    1.640852   3.666582   2.416801   3.269149   3.768862
    12  H    1.697952   1.779822   2.299851   3.537865   2.367410
    13  H    1.638442   1.698097   3.641835   3.175046   2.442354
                   11         12         13
    11  H    0.000000
    12  H    2.341747   0.000000
    13  H    3.101389   2.429154   0.000000
 Stoichiometry    C6H6O
 Framework group  C1[X(C6H6O)]
 Deg. of freedom    33
 Full point group                 C1      NOp   1
 Largest Abelian subgroup         C1      NOp   1
 Largest concise Abelian subgroup C1      NOp   1
                         Standard orientation:                         
 ---------------------------------------------------------------------
 Center     Atomic      Atomic             Coordinates (Angstroms)
 Number     Number       Type             X           Y           Z
 ---------------------------------------------------------------------
      1          8           0        0.086850   -0.118383   -0.831418
      2          6           0        0.301853    1.946089   -0.598587
      3          6           0        2.140493   -0.828236   -0.459471
      4          6           0        0.921356    0.482558    1.179955
      5          6           0       -0.280950   -1.463526    0.874481
      6          6           0       -1.318143    0.839683    0.808194
      7          6           0       -1.839471   -0.791685   -0.805765
      8          1           0        1.304542    0.570179   -0.572611
      9          1           0        1.384569   -1.119959    1.001156
     10          1           0       -0.174829   -1.468610   -0.812466
     11          1           0       -0.024576    1.829894    1.004568
     12          1           0       -0.970318    0.760801   -0.851877
     13          1           0       -1.765025   -0.734528    0.889736
 ---------------------------------------------------------------------
 Rotational constants (GHZ):      2.9623656      2.5206223      2.0780388
 Leave Link  202 at Thu Mar 19 17:17:43 2026, MaxMem=   536870912 cpu:         0.0
 (Enter C:\G09W\l301.exe)
 Standard basis: 6-31G(d) (6D, 7F)
 Ernie: Thresh=  0.10000D-02 Tol=  0.10000D-05 Strict=F.
 There are   117 symmetry adapted cartesian basis functions of A   symmetry.
 There are   117 symmetry adapted basis functions of A   symmetry.
   117 basis functions,   220 primitive gaussians,   117 cartesian basis functions
    25 alpha electrons       25 beta electrons
       nuclear repulsion energy       238.6641866267 Hartrees.
 IExCor=  402 DFT=T Ex+Corr=B3LYP ExCW=0 ScaHFX=  0.200000
 ScaDFX=  0.800000  0.720000  1.000000  0.810000 ScalE2=  1.000000  1.000000
 IRadAn=      0 IRanWt=     -1 IRanGd=            0 ICorTp=0 IEmpDi=  4
 NAtoms=   13 NActive=   13 NUniq=   13 SFac= 1.00D+00 NAtFMM=   60 NAOKFM=F Big=F
 Integral buffers will be    131072 words long.
 Raffenetti 2 integral format.
 Two-electron integral symmetry is turned on.
 Leave Link  301 at Thu Mar 19 17:17:44 2026, MaxMem=   536870912 cpu:         0.0
 (Enter C:\G09W\l302.exe)
 NPDir=0 NMtPBC=     1 NCelOv=     1 NCel=       1 NClECP=     1 NCelD=      1
         NCelK=      1 NCelE2=     1 NClLst=     1 CellRange=     0.0.
 One-electron integrals computed using PRISM.
 NBasis=   117 RedAO= T EigKep=  1.96D-02  NBF=   117
 NBsUse=   117 1.00D-06 EigRej= -1.00D+00 NBFU=   117
 Precomputing XC quadrature grid using
 IXCGrd= 4 IRadAn=           0 IRanWt=          -1 IRanGd=           0 AccXCQ= 0.00D+00.
 Generated NRdTot=       0 NPtTot=           0 NUsed=           0 NTot=          32
 NSgBfM=   117   117   117   117   117 MxSgAt=    13 MxSgA2=    13.
 Leave Link  302 at Thu Mar 19 17:17:44 2026, MaxMem=   536870912 cpu:         0.0
 (Enter C:\G09W\l303.exe)
 DipDrv:  MaxL=1.
 Leave Link  303 at Thu Mar 19 17:17:44 2026, MaxMem=   536870912 cpu:         0.0
 (Enter C:\G09W\l401.exe)
 ExpMin= 1.61D-01 ExpMax= 5.48D+03 ExpMxC= 8.25D+02 IAcc=1 IRadAn=         1 AccDes= 0.00D+00
 Harris functional with IExCor=  402 and IRadAn=       1 diagonalized for initial guess.
 HarFok:  IExCor=  402 AccDes= 0.00D+00 IRadAn=         1 IDoV= 1 UseB2=F ITyADJ=14
 ICtDFT=  3500011 ScaDFX=  1.000000  1.000000  1.000000  1.000000
 FoFCou: FMM=F IPFlag=           0 FMFlag=      100000 FMFlg1=           0
         NFxFlg=           0 DoJE=T BraDBF=F KetDBF=T FulRan=T
         wScrn=  0.000000 ICntrl=     500 IOpCl=  0 I1Cent=   200000004 NGrid=           0
         NMat0=    1 NMatS0=      1 NMatT0=    0 NMatD0=    1 NMtDS0=    0 NMtDT0=    0
 Petite list used in FoFCou.
 Harris En= -305.927897976453    
 JPrj=0 DoOrth=F DoCkMO=F.
 Leave Link  401 at Thu Mar 19 17:17:45 2026, MaxMem=   536870912 cpu:         1.0
 (Enter C:\G09W\l502.exe)
 Closed shell SCF:
 Using DIIS extrapolation, IDIIS=  1040.
 Integral symmetry usage will be decided dynamically.
 Keep R1 ints in memory in canonical form, NReq=24830210.
 IVT=       61204 IEndB=       61204 NGot=   536870912 MDV=   512980553
 LenX=   512980553 LenY=   512966423
 Requested convergence on RMS density matrix=1.00D-08 within 128 cycles.
 Requested convergence on MAX density matrix=1.00D-06.
 Requested convergence on             energy=1.00D-06.
 No special actions if energy rises.
 FoFCou: FMM=F IPFlag=           0 FMFlag=           0 FMFlg1=           0
         NFxFlg=           0 DoJE=F BraDBF=F KetDBF=F FulRan=T
         wScrn=  0.000000 ICntrl=     600 IOpCl=  0 I1Cent=           0 NGrid=           0
         NMat0=    1 NMatS0=   6903 NMatT0=    0 NMatD0=    1 NMtDS0=    0 NMtDT0=    0
 Symmetry not used in FoFCou.
 Integral accuracy reduced to 1.0D-05 until final iterations.

 Cycle   1  Pass 0  IDiag  1:
 E= -305.863269432572    
 DIIS: error= 2.05D-02 at cycle   1 NSaved=   1.
 NSaved= 1 IEnMin= 1 EnMin= -305.863269432572     IErMin= 1 ErrMin= 2.05D-02
 ErrMax= 2.05D-02  0.00D+00 EMaxC= 1.00D-01 BMatC= 6.98D-02 BMatP= 6.98D-02
 IDIUse=3 WtCom= 7.95D-01 WtEn= 2.05D-01
 Coeff-Com:  0.100D+01
 Coeff-En:   0.100D+01
 Coeff:      0.100D+01
 Gap=     0.075 Goal=   None    Shift=    0.000
 GapD=    0.075 DampG=0.500 DampE=0.500 DampFc=0.2500 IDamp=-1.
 Damping current iteration by 2.50D-01
 RMSDP=7.47D-03 MaxDP=1.95D-01              OVMax= 3.74D-01

 Cycle   2  Pass 0  IDiag  1:
 E= -305.853225880962     Delta-E=        0.010043551610 Rises=F Damp=T
 DIIS: error= 9.74D-03 at cycle   2 NSaved=   2.
 NSaved= 2 IEnMin= 1 EnMin= -305.863269432572     IErMin= 2 ErrMin= 9.74D-03
 ErrMax= 9.74D-03  0.00D+00 EMaxC= 1.00D-01 BMatC= 1.83D-02 BMatP= 6.98D-02
 IDIUse=3 WtCom= 9.03D-01 WtEn= 9.74D-02
 Coeff-Com:  0.193D+00 0.807D+00
 Coeff-En:   0.573D+00 0.427D+00
 Coeff:      0.230D+00 0.770D+00
 Gap=     0.100 Goal=   None    Shift=    0.000
 RMSDP=2.84D-03 MaxDP=5.37D-02 DE= 1.00D-02 OVMax= 3.71D-01

 Cycle   3  Pass 0  IDiag  1:
 E= -305.851520123393     Delta-E=        0.001705757569 Rises=F Damp=F
 DIIS: error= 2.46D-02 at cycle   3 NSaved=   3.
 NSaved= 3 IEnMin= 1 EnMin= -305.863269432572     IErMin= 2 ErrMin= 9.74D-03
 ErrMax= 2.46D-02  0.00D+00 EMaxC= 1.00D-01 BMatC= 5.24D-02 BMatP= 1.83D-02
 IDIUse=2 WtCom= 0.00D+00 WtEn= 1.00D+00
 EnCoef did     4 forward-backward iterations
 Coeff-En:   0.221D+00 0.412D+00 0.367D+00
 Coeff:      0.221D+00 0.412D+00 0.367D+00
 Gap=     0.083 Goal=   None    Shift=    0.000
 RMSDP=4.96D-03 MaxDP=1.08D-01 DE= 1.71D-03 OVMax= 2.38D-01

 Cycle   4  Pass 0  IDiag  1:
 E= -305.681558483086     Delta-E=        0.169961640307 Rises=F Damp=F
 DIIS: error= 5.18D-02 at cycle   4 NSaved=   4.
 NSaved= 4 IEnMin= 1 EnMin= -305.863269432572     IErMin= 2 ErrMin= 9.74D-03
 ErrMax= 5.18D-02  0.00D+00 EMaxC= 1.00D-01 BMatC= 1.99D-01 BMatP= 1.83D-02
 IDIUse=2 WtCom= 0.00D+00 WtEn= 1.00D+00
 EnCoef did     4 forward-backward iterations
 Coeff-En:   0.105D+00 0.000D+00 0.594D+00 0.301D+00
 Coeff:      0.105D+00 0.000D+00 0.594D+00 0.301D+00
 Gap=     0.079 Goal=   None    Shift=    0.000
 RMSDP=2.85D-03 MaxDP=5.20D-02 DE= 1.70D-01 OVMax= 1.40D-01

 Problem detected with inexpensive integrals.
 Switching to full accuracy and repeating last cycle.
 Cycle   5  Pass 1  IDiag  1:
 E= -305.681626088326     Delta-E=       -0.000067605239 Rises=F Damp=F
 DIIS: error= 5.18D-02 at cycle   1 NSaved=   1.
 NSaved= 1 IEnMin= 1 EnMin= -305.681626088326     IErMin= 1 ErrMin= 5.18D-02
 ErrMax= 5.18D-02  0.00D+00 EMaxC= 1.00D-01 BMatC= 1.99D-01 BMatP= 1.99D-01
 IDIUse=3 WtCom= 4.82D-01 WtEn= 5.18D-01
 Coeff-Com:  0.100D+01
 Coeff-En:   0.100D+01
 Coeff:      0.100D+01
 Gap=     0.197 Goal=   None    Shift=    0.000
 GapD=    0.197 DampG=1.000 DampE=0.500 DampFc=0.5000 IDamp=-1.
 Damping current iteration by 5.00D-01
 RMSDP=1.77D-02 MaxDP=3.34D-01 DE=-6.76D-05 OVMax= 9.47D-01

 Cycle   6  Pass 1  IDiag  1:
 E= -303.993224151268     Delta-E=        1.688401937058 Rises=F Damp=T
 DIIS: error= 9.46D-02 at cycle   2 NSaved=   2.
 NSaved= 2 IEnMin= 1 EnMin= -305.681626088326     IErMin= 1 ErrMin= 5.18D-02
 ErrMax= 9.46D-02  0.00D+00 EMaxC= 1.00D-01 BMatC= 8.17D-01 BMatP= 1.99D-01
 IDIUse=2 WtCom= 0.00D+00 WtEn= 1.00D+00
 Coeff-En:   0.841D+00 0.159D+00
 Coeff:      0.841D+00 0.159D+00
 Gap=     0.007 Goal=   None    Shift=    0.000
 RMSDP=7.99D-03 MaxDP=2.49D-01 DE= 1.69D+00 OVMax= 7.12D-01

 Cycle   7  Pass 1  IDiag  1:
 E= -304.698635262404     Delta-E=       -0.705411111137 Rises=F Damp=F
 DIIS: error= 1.02D-01 at cycle   3 NSaved=   3.
 NSaved= 3 IEnMin= 1 EnMin= -305.681626088326     IErMin= 1 ErrMin= 5.18D-02
 ErrMax= 1.02D-01  0.00D+00 EMaxC= 1.00D-01 BMatC= 8.47D-01 BMatP= 1.99D-01
 IDIUse=2 WtCom= 0.00D+00 WtEn= 1.00D+00
 Coeff-En:   0.730D+00 0.000D+00 0.270D+00
 Coeff:      0.730D+00 0.000D+00 0.270D+00
 Gap=     0.081 Goal=   None    Shift=    0.000
 RMSDP=6.12D-03 MaxDP=9.95D-02 DE=-7.05D-01 OVMax= 3.03D-01

 Cycle   8  Pass 1  IDiag  1:
 E= -305.672012363296     Delta-E=       -0.973377100892 Rises=F Damp=F
 DIIS: error= 4.00D-02 at cycle   4 NSaved=   4.
 NSaved= 4 IEnMin= 1 EnMin= -305.681626088326     IErMin= 4 ErrMin= 4.00D-02
 ErrMax= 4.00D-02  0.00D+00 EMaxC= 1.00D-01 BMatC= 1.87D-01 BMatP= 1.99D-01
 IDIUse=3 WtCom= 6.00D-01 WtEn= 4.00D-01
 EnCoef did     7 forward-backward iterations
 Coeff-Com:  0.554D+00 0.292D-01 0.144D+00 0.273D+00
 Coeff-En:   0.533D+00 0.000D+00 0.515D-01 0.416D+00
 Coeff:      0.545D+00 0.175D-01 0.107D+00 0.330D+00
 Gap=     0.133 Goal=   None    Shift=    0.000
 RMSDP=5.77D-03 MaxDP=1.24D-01 DE=-9.73D-01 OVMax= 3.02D-01

 Cycle   9  Pass 1  IDiag  1:
 E= -305.702796110673     Delta-E=       -0.030783747377 Rises=F Damp=F
 DIIS: error= 4.83D-02 at cycle   5 NSaved=   5.
 NSaved= 5 IEnMin= 5 EnMin= -305.702796110673     IErMin= 4 ErrMin= 4.00D-02
 ErrMax= 4.83D-02  0.00D+00 EMaxC= 1.00D-01 BMatC= 1.54D-01 BMatP= 1.87D-01
 IDIUse=3 WtCom= 5.17D-01 WtEn= 4.83D-01
 EnCoef did     6 forward-backward iterations
 Coeff-Com:  0.273D+00 0.349D-01-0.668D-01 0.413D+00 0.346D+00
 Coeff-En:   0.327D+00 0.000D+00 0.000D+00 0.396D+00 0.277D+00
 Coeff:      0.299D+00 0.180D-01-0.345D-01 0.405D+00 0.313D+00
 Gap=     0.106 Goal=   None    Shift=    0.000
 RMSDP=3.54D-03 MaxDP=7.30D-02 DE=-3.08D-02 OVMax= 1.82D-01

 Cycle  10  Pass 1  IDiag  1:
 E= -305.916535332706     Delta-E=       -0.213739222032 Rises=F Damp=F
 DIIS: error= 7.17D-03 at cycle   6 NSaved=   6.
 NSaved= 6 IEnMin= 6 EnMin= -305.916535332706     IErMin= 6 ErrMin= 7.17D-03
 ErrMax= 7.17D-03  0.00D+00 EMaxC= 1.00D-01 BMatC= 4.93D-03 BMatP= 1.54D-01
 IDIUse=3 WtCom= 9.28D-01 WtEn= 7.17D-02
 Coeff-Com:  0.945D-01-0.173D-01-0.386D-01 0.230D+00 0.215D+00 0.517D+00
 Coeff-En:   0.000D+00 0.000D+00 0.000D+00 0.000D+00 0.114D-02 0.999D+00
 Coeff:      0.878D-01-0.161D-01-0.358D-01 0.213D+00 0.200D+00 0.551D+00
 Gap=     0.088 Goal=   None    Shift=    0.000
 RMSDP=1.34D-03 MaxDP=2.95D-02 DE=-2.14D-01 OVMax= 6.38D-02

 Cycle  11  Pass 1  IDiag  1:
 E= -305.904958056963     Delta-E=        0.011577275742 Rises=F Damp=F
 DIIS: error= 1.25D-02 at cycle   7 NSaved=   7.
 NSaved= 7 IEnMin= 6 EnMin= -305.916535332706     IErMin= 6 ErrMin= 7.17D-03
 ErrMax= 1.25D-02  0.00D+00 EMaxC= 1.00D-01 BMatC= 1.39D-02 BMatP= 4.93D-03
 IDIUse=2 WtCom= 0.00D+00 WtEn= 1.00D+00
 Coeff-En:   0.000D+00 0.000D+00 0.000D+00 0.000D+00 0.000D+00 0.671D+00
 Coeff-En:   0.329D+00
 Coeff:      0.000D+00 0.000D+00 0.000D+00 0.000D+00 0.000D+00 0.671D+00
 Coeff:      0.329D+00
 Gap=     0.089 Goal=   None    Shift=    0.000
 RMSDP=1.72D-03 MaxDP=3.04D-02 DE= 1.16D-02 OVMax= 8.89D-02

 Cycle  12  Pass 1  IDiag  1:
 E= -305.880857358174     Delta-E=        0.024100698789 Rises=F Damp=F
 DIIS: error= 1.70D-02 at cycle   8 NSaved=   8.
 NSaved= 8 IEnMin= 6 EnMin= -305.916535332706     IErMin= 6 ErrMin= 7.17D-03
 ErrMax= 1.70D-02  0.00D+00 EMaxC= 1.00D-01 BMatC= 3.05D-02 BMatP= 4.93D-03
 IDIUse=2 WtCom= 0.00D+00 WtEn= 1.00D+00
 EnCoef did     1 forward-backward iterations
 Coeff-En:   0.000D+00 0.000D+00 0.000D+00 0.000D+00 0.000D+00 0.625D+00
 Coeff-En:   0.271D+00 0.104D+00
 Coeff:      0.000D+00 0.000D+00 0.000D+00 0.000D+00 0.000D+00 0.625D+00
 Coeff:      0.271D+00 0.104D+00
 Gap=     0.088 Goal=   None    Shift=    0.000
 RMSDP=9.75D-04 MaxDP=2.26D-02 DE= 2.41D-02 OVMax= 5.46D-02

 Cycle  13  Pass 1  IDiag  1:
 E= -305.918447927643     Delta-E=       -0.037590569469 Rises=F Damp=F
 DIIS: error= 5.88D-03 at cycle   9 NSaved=   9.
 NSaved= 9 IEnMin= 9 EnMin= -305.918447927643     IErMin= 9 ErrMin= 5.88D-03
 ErrMax= 5.88D-03  0.00D+00 EMaxC= 1.00D-01 BMatC= 3.36D-03 BMatP= 4.93D-03
 IDIUse=3 WtCom= 9.41D-01 WtEn= 5.88D-02
 EnCoef did     3 forward-backward iterations
 Coeff-Com:  0.454D-02 0.115D-02-0.120D-02-0.810D-02-0.421D-02 0.420D+00
 Coeff-Com:  0.135D+00-0.787D-01 0.532D+00
 Coeff-En:   0.000D+00 0.000D+00 0.000D+00 0.000D+00 0.000D+00 0.447D+00
 Coeff-En:   0.876D-01 0.000D+00 0.465D+00
 Coeff:      0.427D-02 0.108D-02-0.113D-02-0.763D-02-0.397D-02 0.421D+00
 Coeff:      0.132D+00-0.741D-01 0.528D+00
 Gap=     0.086 Goal=   None    Shift=    0.000
 RMSDP=4.55D-04 MaxDP=1.12D-02 DE=-3.76D-02 OVMax= 2.74D-02

 Cycle  14  Pass 1  IDiag  1:
 E= -305.922918355400     Delta-E=       -0.004470427757 Rises=F Damp=F
 DIIS: error= 4.54D-04 at cycle  10 NSaved=  10.
 NSaved=10 IEnMin=10 EnMin= -305.922918355400     IErMin=10 ErrMin= 4.54D-04
 ErrMax= 4.54D-04  0.00D+00 EMaxC= 1.00D-01 BMatC= 2.54D-05 BMatP= 3.36D-03
 IDIUse=3 WtCom= 9.95D-01 WtEn= 4.54D-03
 Coeff-Com:  0.106D-01 0.108D-02-0.165D-02-0.130D-03 0.267D-02 0.168D+00
 Coeff-Com:  0.132D-01-0.122D+00 0.453D+00 0.475D+00
 Coeff-En:   0.000D+00 0.000D+00 0.000D+00 0.000D+00 0.000D+00 0.000D+00
 Coeff-En:   0.000D+00 0.000D+00 0.000D+00 0.100D+01
 Coeff:      0.106D-01 0.107D-02-0.165D-02-0.130D-03 0.266D-02 0.167D+00
 Coeff:      0.131D-01-0.121D+00 0.451D+00 0.477D+00
 Gap=     0.086 Goal=   None    Shift=    0.000
 RMSDP=4.96D-05 MaxDP=9.51D-04 DE=-4.47D-03 OVMax= 2.83D-03

 Cycle  15  Pass 1  IDiag  1:
 E= -305.922943870298     Delta-E=       -0.000025514898 Rises=F Damp=F
 DIIS: error= 3.00D-04 at cycle  11 NSaved=  11.
 NSaved=11 IEnMin=11 EnMin= -305.922943870298     IErMin=11 ErrMin= 3.00D-04
 ErrMax= 3.00D-04  0.00D+00 EMaxC= 1.00D-01 BMatC= 5.74D-06 BMatP= 2.54D-05
 IDIUse=3 WtCom= 9.97D-01 WtEn= 3.00D-03
 Coeff-Com:  0.159D-02 0.133D-03-0.444D-03 0.295D-02-0.206D-02 0.195D-01
 Coeff-Com: -0.232D-01-0.379D-01 0.136D+00 0.316D+00 0.587D+00
 Coeff-En:   0.000D+00 0.000D+00 0.000D+00 0.000D+00 0.000D+00 0.000D+00
 Coeff-En:   0.000D+00 0.000D+00 0.000D+00 0.151D+00 0.849D+00
 Coeff:      0.159D-02 0.133D-03-0.443D-03 0.294D-02-0.205D-02 0.195D-01
 Coeff:     -0.231D-01-0.378D-01 0.135D+00 0.316D+00 0.588D+00
 Gap=     0.086 Goal=   None    Shift=    0.000
 RMSDP=3.23D-05 MaxDP=8.51D-04 DE=-2.55D-05 OVMax= 1.96D-03

 Cycle  16  Pass 1  IDiag  1:
 E= -305.922949791301     Delta-E=       -0.000005921003 Rises=F Damp=F
 DIIS: error= 1.49D-04 at cycle  12 NSaved=  12.
 NSaved=12 IEnMin=12 EnMin= -305.922949791301     IErMin=12 ErrMin= 1.49D-04
 ErrMax= 1.49D-04  0.00D+00 EMaxC= 1.00D-01 BMatC= 2.59D-06 BMatP= 5.74D-06
 IDIUse=3 WtCom= 9.99D-01 WtEn= 1.49D-03
 Coeff-Com: -0.279D-04 0.304D-04-0.135D-03 0.202D-02-0.243D-02-0.741D-02
 Coeff-Com: -0.199D-01-0.142D-01 0.451D-01 0.189D+00 0.522D+00 0.286D+00
 Coeff-En:   0.000D+00 0.000D+00 0.000D+00 0.000D+00 0.000D+00 0.000D+00
 Coeff-En:   0.000D+00 0.000D+00 0.000D+00 0.000D+00 0.241D+00 0.759D+00
 Coeff:     -0.279D-04 0.303D-04-0.134D-03 0.201D-02-0.243D-02-0.740D-02
 Coeff:     -0.199D-01-0.142D-01 0.451D-01 0.189D+00 0.521D+00 0.287D+00
 Gap=     0.086 Goal=   None    Shift=    0.000
 RMSDP=1.53D-05 MaxDP=2.98D-04 DE=-5.92D-06 OVMax= 9.31D-04

 Cycle  17  Pass 1  IDiag  1:
 E= -305.922952961323     Delta-E=       -0.000003170021 Rises=F Damp=F
 DIIS: error= 7.31D-05 at cycle  13 NSaved=  13.
 NSaved=13 IEnMin=13 EnMin= -305.922952961323     IErMin=13 ErrMin= 7.31D-05
 ErrMax= 7.31D-05  0.00D+00 EMaxC= 1.00D-01 BMatC= 4.82D-07 BMatP= 2.59D-06
 IDIUse=1 WtCom= 1.00D+00 WtEn= 0.00D+00
 Coeff-Com:  0.642D-03-0.137D-04-0.173D-03 0.620D-03 0.486D-04-0.213D-01
 Coeff-Com: -0.783D-02-0.252D-02-0.192D-01 0.610D-02 0.206D+00 0.257D+00
 Coeff-Com:  0.581D+00
 Coeff:      0.642D-03-0.137D-04-0.173D-03 0.620D-03 0.486D-04-0.213D-01
 Coeff:     -0.783D-02-0.252D-02-0.192D-01 0.610D-02 0.206D+00 0.257D+00
 Coeff:      0.581D+00
 Gap=     0.086 Goal=   None    Shift=    0.000
 RMSDP=8.58D-06 MaxDP=2.05D-04 DE=-3.17D-06 OVMax= 5.86D-04

 Cycle  18  Pass 1  IDiag  1:
 E= -305.922953529634     Delta-E=       -0.000000568311 Rises=F Damp=F
 DIIS: error= 2.81D-05 at cycle  14 NSaved=  14.
 NSaved=14 IEnMin=14 EnMin= -305.922953529634     IErMin=14 ErrMin= 2.81D-05
 ErrMax= 2.81D-05  0.00D+00 EMaxC= 1.00D-01 BMatC= 6.29D-08 BMatP= 4.82D-07
 IDIUse=1 WtCom= 1.00D+00 WtEn= 0.00D+00
 Coeff-Com:  0.193D-03 0.107D-04-0.765D-05-0.340D-03-0.387D-04-0.600D-02
 Coeff-Com:  0.251D-02 0.539D-02-0.228D-01-0.476D-01-0.391D-01 0.227D-01
 Coeff-Com:  0.162D+00 0.923D+00
 Coeff:      0.193D-03 0.107D-04-0.765D-05-0.340D-03-0.387D-04-0.600D-02
 Coeff:      0.251D-02 0.539D-02-0.228D-01-0.476D-01-0.391D-01 0.227D-01
 Coeff:      0.162D+00 0.923D+00
 Gap=     0.086 Goal=   None    Shift=    0.000
 RMSDP=5.03D-06 MaxDP=8.34D-05 DE=-5.68D-07 OVMax= 3.59D-04

 Cycle  19  Pass 1  IDiag  1:
 E= -305.922953649940     Delta-E=       -0.000000120307 Rises=F Damp=F
 DIIS: error= 4.39D-06 at cycle  15 NSaved=  15.
 NSaved=15 IEnMin=15 EnMin= -305.922953649940     IErMin=15 ErrMin= 4.39D-06
 ErrMax= 4.39D-06  0.00D+00 EMaxC= 1.00D-01 BMatC= 3.08D-09 BMatP= 6.29D-08
 IDIUse=1 WtCom= 1.00D+00 WtEn= 0.00D+00
 Coeff-Com: -0.225D-04-0.861D-05 0.139D-04-0.137D-03 0.270D-04 0.223D-03
 Coeff-Com:  0.128D-02 0.125D-02-0.340D-02-0.929D-02-0.192D-01-0.176D-01
 Coeff-Com:  0.340D-02 0.223D+00 0.820D+00
 Coeff:     -0.225D-04-0.861D-05 0.139D-04-0.137D-03 0.270D-04 0.223D-03
 Coeff:      0.128D-02 0.125D-02-0.340D-02-0.929D-02-0.192D-01-0.176D-01
 Coeff:      0.340D-02 0.223D+00 0.820D+00
 Gap=     0.086 Goal=   None    Shift=    0.000
 RMSDP=1.02D-06 MaxDP=1.01D-05 DE=-1.20D-07 OVMax= 8.35D-05

 Cycle  20  Pass 1  IDiag  1:
 E= -305.922953655383     Delta-E=       -0.000000005442 Rises=F Damp=F
 DIIS: error= 2.06D-06 at cycle  16 NSaved=  16.
 NSaved=16 IEnMin=16 EnMin= -305.922953655383     IErMin=16 ErrMin= 2.06D-06
 ErrMax= 2.06D-06  0.00D+00 EMaxC= 1.00D-01 BMatC= 5.97D-10 BMatP= 3.08D-09
 IDIUse=1 WtCom= 1.00D+00 WtEn= 0.00D+00
 Coeff-Com: -0.189D-04-0.216D-05 0.413D-05 0.160D-04-0.569D-05 0.582D-03
 Coeff-Com: -0.550D-04-0.217D-03 0.184D-02 0.255D-02-0.214D-02-0.114D-01
 Coeff-Com: -0.108D-01-0.487D-01 0.163D+00 0.906D+00
 Coeff:     -0.189D-04-0.216D-05 0.413D-05 0.160D-04-0.569D-05 0.582D-03
 Coeff:     -0.550D-04-0.217D-03 0.184D-02 0.255D-02-0.214D-02-0.114D-01
 Coeff:     -0.108D-01-0.487D-01 0.163D+00 0.906D+00
 Gap=     0.086 Goal=   None    Shift=    0.000
 RMSDP=4.38D-07 MaxDP=4.68D-06 DE=-5.44D-09 OVMax= 3.29D-05

 Cycle  21  Pass 1  IDiag  1:
 E= -305.922953656476     Delta-E=       -0.000000001093 Rises=F Damp=F
 DIIS: error= 4.00D-07 at cycle  17 NSaved=  17.
 NSaved=17 IEnMin=17 EnMin= -305.922953656476     IErMin=17 ErrMin= 4.00D-07
 ErrMax= 4.00D-07  0.00D+00 EMaxC= 1.00D-01 BMatC= 2.12D-11 BMatP= 5.97D-10
 IDIUse=1 WtCom= 1.00D+00 WtEn= 0.00D+00
 Coeff-Com:  0.285D-05 0.453D-07-0.652D-06 0.181D-04-0.149D-05 0.131D-03
 Coeff-Com: -0.130D-03-0.195D-03 0.893D-03 0.132D-02 0.224D-03-0.298D-02
 Coeff-Com: -0.681D-03-0.329D-01-0.258D-01 0.276D+00 0.784D+00
 Coeff:      0.285D-05 0.453D-07-0.652D-06 0.181D-04-0.149D-05 0.131D-03
 Coeff:     -0.130D-03-0.195D-03 0.893D-03 0.132D-02 0.224D-03-0.298D-02
 Coeff:     -0.681D-03-0.329D-01-0.258D-01 0.276D+00 0.784D+00
 Gap=     0.086 Goal=   None    Shift=    0.000
 RMSDP=1.21D-07 MaxDP=1.25D-06 DE=-1.09D-09 OVMax= 8.58D-06

 Cycle  22  Pass 1  IDiag  1:
 E= -305.922953656514     Delta-E=       -0.000000000038 Rises=F Damp=F
 DIIS: error= 2.09D-07 at cycle  18 NSaved=  18.
 NSaved=18 IEnMin=18 EnMin= -305.922953656514     IErMin=18 ErrMin= 2.09D-07
 ErrMax= 2.09D-07  0.00D+00 EMaxC= 1.00D-01 BMatC= 4.43D-12 BMatP= 2.12D-11
 IDIUse=1 WtCom= 1.00D+00 WtEn= 0.00D+00
 Coeff-Com:  0.222D-05 0.918D-07-0.663D-06 0.293D-05-0.136D-05-0.602D-05
 Coeff-Com: -0.703D-05-0.207D-04 0.159D-04-0.510D-04-0.319D-04 0.524D-03
 Coeff-Com:  0.161D-02-0.219D-02-0.166D-01-0.487D-01 0.142D+00 0.924D+00
 Coeff:      0.222D-05 0.918D-07-0.663D-06 0.293D-05-0.136D-05-0.602D-05
 Coeff:     -0.703D-05-0.207D-04 0.159D-04-0.510D-04-0.319D-04 0.524D-03
 Coeff:      0.161D-02-0.219D-02-0.166D-01-0.487D-01 0.142D+00 0.924D+00
 Gap=     0.086 Goal=   None    Shift=    0.000
 RMSDP=4.41D-08 MaxDP=6.67D-07 DE=-3.80D-11 OVMax= 2.88D-06

 Cycle  23  Pass 1  IDiag  1:
 E= -305.922953656537     Delta-E=       -0.000000000024 Rises=F Damp=F
 DIIS: error= 6.54D-08 at cycle  19 NSaved=  19.
 NSaved=19 IEnMin=19 EnMin= -305.922953656537     IErMin=19 ErrMin= 6.54D-08
 ErrMax= 6.54D-08  0.00D+00 EMaxC= 1.00D-01 BMatC= 3.69D-13 BMatP= 4.43D-12
 IDIUse=1 WtCom= 1.00D+00 WtEn= 0.00D+00
 Coeff-Com:  0.123D-06 0.828D-08-0.947D-07-0.957D-06-0.148D-06-0.604D-05
 Coeff-Com:  0.125D-04 0.116D-04-0.747D-04-0.147D-03-0.641D-04 0.473D-03
 Coeff-Com:  0.509D-03 0.245D-02 0.152D-02-0.426D-01-0.530D-01 0.204D+00
 Coeff-Com:  0.887D+00
 Coeff:      0.123D-06 0.828D-08-0.947D-07-0.957D-06-0.148D-06-0.604D-05
 Coeff:      0.125D-04 0.116D-04-0.747D-04-0.147D-03-0.641D-04 0.473D-03
 Coeff:      0.509D-03 0.245D-02 0.152D-02-0.426D-01-0.530D-01 0.204D+00
 Coeff:      0.887D+00
 Gap=     0.086 Goal=   None    Shift=    0.000
 RMSDP=1.49D-08 MaxDP=1.78D-07 DE=-2.36D-11 OVMax= 9.83D-07

 Cycle  24  Pass 1  IDiag  1:
 E= -305.922953656547     Delta-E=       -0.000000000010 Rises=F Damp=F
 DIIS: error= 2.00D-08 at cycle  20 NSaved=  20.
 NSaved=20 IEnMin=20 EnMin= -305.922953656547     IErMin=20 ErrMin= 2.00D-08
 ErrMax= 2.00D-08  0.00D+00 EMaxC= 1.00D-01 BMatC= 3.53D-14 BMatP= 3.69D-13
 IDIUse=1 WtCom= 1.00D+00 WtEn= 0.00D+00
 Coeff-Com: -0.200D-06 0.569D-08 0.414D-07-0.582D-06 0.652D-07 0.183D-06
 Coeff-Com:  0.286D-05 0.438D-05-0.168D-04-0.227D-04 0.678D-05 0.869D-04
 Coeff-Com: -0.524D-04 0.679D-03 0.182D-02-0.637D-02-0.242D-01-0.342D-01
 Coeff-Com:  0.210D+00 0.852D+00
 Coeff:     -0.200D-06 0.569D-08 0.414D-07-0.582D-06 0.652D-07 0.183D-06
 Coeff:      0.286D-05 0.438D-05-0.168D-04-0.227D-04 0.678D-05 0.869D-04
 Coeff:     -0.524D-04 0.679D-03 0.182D-02-0.637D-02-0.242D-01-0.342D-01
 Coeff:      0.210D+00 0.852D+00
 Gap=     0.086 Goal=   None    Shift=    0.000
 RMSDP=4.14D-09 MaxDP=4.85D-08 DE=-1.00D-11 OVMax= 2.52D-07

 SCF Done:  E(RB3LYP) =  -305.922953657     A.U. after   24 cycles
            NFock= 24  Conv=0.41D-08     -V/T= 2.0114
 KE= 3.024850665118D+02 PE=-1.187862549614D+03 EE= 3.407903428186D+02
 Leave Link  502 at Thu Mar 19 17:18:11 2026, MaxMem=   536870912 cpu:        26.0
 (Enter C:\G09W\l601.exe)
 Copying SCF densities to generalized density rwf, IOpCl= 0 IROHF=0.

 **********************************************************************

            Population analysis using the SCF density.

 **********************************************************************

 Orbital symmetries:
       Occupied  (A) (A) (A) (A) (A) (A) (A) (A) (A) (A) (A) (A)
                 (A) (A) (A) (A) (A) (A) (A) (A) (A) (A) (A) (A)
                 (A)
       Virtual   (A) (A) (A) (A) (A) (A) (A) (A) (A) (A) (A) (A)
                 (A) (A) (A) (A) (A) (A) (A) (A) (A) (A) (A) (A)
                 (A) (A) (A) (A) (A) (A) (A) (A) (A) (A) (A) (A)
                 (A) (A) (A) (A) (A) (A) (A) (A) (A) (A) (A) (A)
                 (A) (A) (A) (A) (A) (A) (A) (A) (A) (A) (A) (A)
                 (A) (A) (A) (A) (A) (A) (A) (A) (A) (A) (A) (A)
                 (A) (A) (A) (A) (A) (A) (A) (A) (A) (A) (A) (A)
                 (A) (A) (A) (A) (A) (A) (A) (A)
 The electronic state is 1-A.
 Alpha  occ. eigenvalues --  -19.23394 -10.35176 -10.35045 -10.34233 -10.34149
 Alpha  occ. eigenvalues --  -10.33623 -10.32648  -1.02296  -0.71721  -0.69632
 Alpha  occ. eigenvalues --   -0.67121  -0.56563  -0.54078  -0.52782  -0.49396
 Alpha  occ. eigenvalues --   -0.48102  -0.39176  -0.37886  -0.36675  -0.31633
 Alpha  occ. eigenvalues --   -0.27833  -0.27200  -0.26207  -0.23684  -0.23262
 Alpha virt. eigenvalues --   -0.14694  -0.13706  -0.12957  -0.11766  -0.11252
 Alpha virt. eigenvalues --   -0.10519  -0.10062  -0.08330  -0.07095  -0.05755
 Alpha virt. eigenvalues --    0.00688   0.02619   0.06484   0.08286   0.09061
 Alpha virt. eigenvalues --    0.09971   0.48301   0.49149   0.49895   0.50772
 Alpha virt. eigenvalues --    0.51863   0.53280   0.54716   0.55402   0.56097
 Alpha virt. eigenvalues --    0.57605   0.60078   0.60974   0.64270   0.64570
 Alpha virt. eigenvalues --    0.65405   0.66752   0.68402   0.68719   0.71613
 Alpha virt. eigenvalues --    0.73101   0.75478   0.76223   0.78218   0.80478
 Alpha virt. eigenvalues --    0.90389   0.91366   0.95858   0.98258   1.04523
 Alpha virt. eigenvalues --    1.07391   1.13490   1.22137   1.23513   1.25406
 Alpha virt. eigenvalues --    1.54424   1.54976   1.56611   1.58428   1.59270
 Alpha virt. eigenvalues --    1.59970   1.62684   1.63693   1.64036   1.65644
 Alpha virt. eigenvalues --    1.66481   1.66811   1.67353   1.67861   1.70270
 Alpha virt. eigenvalues --    1.72443   1.74825   1.76379   1.76628   1.77240
 Alpha virt. eigenvalues --    1.81227   1.84506   1.85312   1.89425   1.89890
 Alpha virt. eigenvalues --    1.91149   1.92467   1.95744   1.96814   2.10242
 Alpha virt. eigenvalues --    2.10371   2.15287   2.20470   2.26572   2.30635
 Alpha virt. eigenvalues --    3.86135   3.91105   3.96922   4.06218   4.08604
 Alpha virt. eigenvalues --    4.12149   4.16649
          Condensed to atoms (all electrons):
               1          2          3          4          5          6
     1  O    9.118938  -0.039574  -0.017946  -0.052807  -0.044811  -0.092621
     2  C   -0.039574   5.900019  -0.023026   0.004709   0.003928   0.021101
     3  C   -0.017946  -0.023026   5.782156   0.027930  -0.005618   0.003728
     4  C   -0.052807   0.004709   0.027930   6.032580   0.017561   0.020865
     5  C   -0.044811   0.003928  -0.005618   0.017561   5.922925  -0.007506
     6  C   -0.092621   0.021101   0.003728   0.020865  -0.007506   6.015932
     7  C   -0.032649  -0.012767   0.000013   0.004932   0.007600   0.032978
     8  H   -0.083912   0.063679   0.101798   0.070555   0.003460   0.000728
     9  H   -0.017891   0.004401   0.160855   0.017232   0.034748  -0.001850
    10  H   -0.062375   0.008834   0.017313  -0.000084   0.134591   0.007976
    11  H   -0.000888   0.142603   0.001952   0.027329  -0.003477   0.042846
    12  H   -0.059826   0.063932   0.004945  -0.003143   0.002685   0.130347
    13  H   -0.005463   0.001942   0.000745  -0.011467   0.081045   0.036695
               7          8          9         10         11         12
     1  O   -0.032649  -0.083912  -0.017891  -0.062375  -0.000888  -0.059826
     2  C   -0.012767   0.063679   0.004401   0.008834   0.142603   0.063932
     3  C    0.000013   0.101798   0.160855   0.017313   0.001952   0.004945
     4  C    0.004932   0.070555   0.017232  -0.000084   0.027329  -0.003143
     5  C    0.007600   0.003460   0.034748   0.134591  -0.003477   0.002685
     6  C    0.032978   0.000728  -0.001850   0.007976   0.042846   0.130347
     7  C    5.865722   0.007598   0.001042   0.053524   0.001197   0.035357
     8  H    0.007598   0.638861  -0.027720   0.006165  -0.018088   0.000092
     9  H    0.001042  -0.027720   0.663913  -0.005014   0.002997  -0.001657
    10  H    0.053524   0.006165  -0.005014   0.585112  -0.001399   0.007822
    11  H    0.001197  -0.018088   0.002997  -0.001399   0.593415  -0.019042
    12  H    0.035357   0.000092  -0.001657   0.007822  -0.019042   0.560809
    13  H    0.109365  -0.001631   0.003721  -0.017035   0.004056  -0.017087
              13
     1  O   -0.005463
     2  C    0.001942
     3  C    0.000745
     4  C   -0.011467
     5  C    0.081045
     6  C    0.036695
     7  C    0.109365
     8  H   -0.001631
     9  H    0.003721
    10  H   -0.017035
    11  H    0.004056
    12  H   -0.017087
    13  H    0.613330
 Mulliken charges:
               1
     1  O   -0.608174
     2  C   -0.139781
     3  C   -0.054845
     4  C   -0.156194
     5  C   -0.147130
     6  C   -0.211220
     7  C   -0.073913
     8  H    0.238413
     9  H    0.165222
    10  H    0.264570
    11  H    0.226500
    12  H    0.294765
    13  H    0.201785
 Sum of Mulliken charges =   0.00000
 Mulliken charges with hydrogens summed into heavy atoms:
               1
     1  O    0.189574
     2  C    0.086720
     3  C    0.110377
     4  C   -0.156194
     5  C   -0.147130
     6  C   -0.009435
     7  C   -0.073913
 Electronic spatial extent (au):  <R**2>=            694.1608
 Charge=              0.0000 electrons
 Dipole moment (field-independent basis, Debye):
    X=             -0.2917    Y=             -0.3539    Z=              0.3314  Tot=              0.5659
 Quadrupole moment (field-independent basis, Debye-Ang):
   XX=            -48.9010   YY=            -49.5967   ZZ=            -48.8286
   XY=              0.8731   XZ=              0.3367   YZ=             -0.0580
 Traceless Quadrupole moment (field-independent basis, Debye-Ang):
   XX=              0.2078   YY=             -0.4879   ZZ=              0.2802
   XY=              0.8731   XZ=              0.3367   YZ=             -0.0580
 Octapole moment (field-independent basis, Debye-Ang**2):
  XXX=              1.8498  YYY=              2.0424  ZZZ=             -7.3541  XYY=              0.1681
  XXY=             -3.7990  XXZ=             -1.3193  XZZ=             -0.9756  YZZ=             -1.3578
  YYZ=             -0.1814  XYZ=              0.0386
 Hexadecapole moment (field-independent basis, Debye-Ang**3):
 XXXX=           -478.6467 YYYY=           -407.1911 ZZZZ=           -246.7456 XXXY=              4.2667
 XXXZ=             -0.6127 YYYX=              4.5342 YYYZ=              6.5196 ZZZX=              0.9712
 ZZZY=             -0.1852 XXYY=           -155.7063 XXZZ=           -123.7933 YYZZ=           -104.5153
 XXYZ=             -7.4588 YYXZ=              0.8160 ZZXY=              0.5219
 N-N= 2.386641866267D+02 E-N=-1.187862549218D+03  KE= 3.024850665118D+02
 No NMR shielding tensors so no spin-rotation constants.
 Leave Link  601 at Thu Mar 19 17:18:12 2026, MaxMem=   536870912 cpu:         1.0
 (Enter C:\G09W\l701.exe)
 Compute integral first derivatives.
 ... and contract with generalized density number  0.
 Leave Link  701 at Thu Mar 19 17:18:12 2026, MaxMem=   536870912 cpu:         0.0
 (Enter C:\G09W\l702.exe)
 L702 exits ... SP integral derivatives will be done elsewhere.
 Leave Link  702 at Thu Mar 19 17:18:12 2026, MaxMem=   536870912 cpu:         0.0
 (Enter C:\G09W\l703.exe)
 Compute integral first derivatives, UseDBF=F ICtDFT=           0.
 Integral derivatives from FoFJK, PRISM(SPDF).
 Calling FoFJK, ICntrl=      2127 FMM=F ISym2X=0 I1Cent= 0 IOpClX= 0 NMat=1 NMatS=1 NMatT=0.
 FoFJK:  IHMeth= 1 ICntrl=    2127 DoSepK=F KAlg= 0 I1Cent=   0 FoldK=F
 IRaf=         0 NMat=   1 IRICut=       1 DoRegI=T DoRafI=F ISym2E= 0.
 FoFCou: FMM=F IPFlag=           0 FMFlag=      100000 FMFlg1=         800
         NFxFlg=           0 DoJE=F BraDBF=F KetDBF=F FulRan=T
         wScrn=  0.000000 ICntrl=    2127 IOpCl=  0 I1Cent=           0 NGrid=           0
         NMat0=    1 NMatS0=      1 NMatT0=    0 NMatD0=    1 NMtDS0=    0 NMtDT0=    0
 Symmetry not used in FoFCou.
 Leave Link  703 at Thu Mar 19 17:18:15 2026, MaxMem=   536870912 cpu:         3.0
 (Enter C:\G09W\l716.exe)
 Dipole        =-1.14763878D-01-1.39239286D-01 1.30396611D-01
 ***** Axes restored to original set *****
 -------------------------------------------------------------------
 Center     Atomic                   Forces (Hartrees/Bohr)
 Number     Number              X              Y              Z
 -------------------------------------------------------------------
      1        8           0.038288844   -0.017740799    0.024873624
      2        6          -0.041947877    0.045556669    0.032872709
      3        6          -0.081517595    0.000121571    0.015197490
      4        6           0.005938267   -0.003718610    0.000583544
      5        6           0.014181219   -0.033192951   -0.001658436
      6        6           0.019725267   -0.020406734   -0.002482834
      7        6          -0.024219123    0.047246565   -0.030801186
      8        1           0.004571273    0.021276221   -0.020826426
      9        1           0.039724349   -0.026908442   -0.010891076
     10        1          -0.027084151    0.013744438    0.004792812
     11        1           0.042239785   -0.026167865    0.007706256
     12        1          -0.028010040    0.008839056   -0.008651068
     13        1           0.038109781   -0.008649120   -0.010715409
 -------------------------------------------------------------------
 Cartesian Forces:  Max     0.081517595 RMS     0.027506077
 Leave Link  716 at Thu Mar 19 17:18:16 2026, MaxMem=   536870912 cpu:         0.0
 (Enter C:\G09W\l103.exe)

 GradGradGradGradGradGradGradGradGradGradGradGradGradGradGradGradGradGrad
 Berny optimization.
 FormGI is forming the generalized inverse of G from B-inverse, IUseBI=4.
 Internal  Forces:  Max     0.054065044 RMS     0.011683324
 Search for a local minimum.
 Step number   1 out of a maximum of  100
 All quantities printed in internal units (Hartrees-Bohrs-Radians)
 RMS Force = .11683D-01 SwitMx=.10000D-02 MixMth= 1
 Mixed Optimization -- RFO/linear search
 Second derivative matrix not updated -- first step.
 ITU=  0
     Eigenvalues ---    0.00624   0.00832   0.01031   0.01791   0.01812
     Eigenvalues ---    0.03313   0.03987   0.04669   0.05835   0.06337
     Eigenvalues ---    0.06849   0.07153   0.07563   0.07711   0.07748
     Eigenvalues ---    0.07861   0.07981   0.08283   0.08423   0.08460
     Eigenvalues ---    0.08952   0.09068   0.09257   0.09793   0.09997
     Eigenvalues ---    0.10927   0.11936   0.12700   0.12871   0.13649
     Eigenvalues ---    0.14377   0.15059   0.15945
 RFO step:  Lambda=-9.23098490D-02 EMin= 6.24454094D-03
 Linear search not attempted -- first point.
 Maximum step size (   0.300) exceeded in Quadratic search.
    -- Step size scaled by   0.443
 Iteration  1 RMS(Cart)=  0.02795067 RMS(Int)=  0.00048365
 Iteration  2 RMS(Cart)=  0.00033296 RMS(Int)=  0.00022380
 Iteration  3 RMS(Cart)=  0.00000012 RMS(Int)=  0.00022380
 ITry= 1 IFail=0 DXMaxC= 1.12D-01 DCOld= 1.00D+10 DXMaxT= 3.00D-01 DXLimC= 3.00D+00 Rises=F
 Variable       Old X    -DE/DX   Delta X   Delta X   Delta X     New X
                                 (Linear)    (Quad)   (Total)
    R1        2.68838  -0.00126   0.00000  -0.00086  -0.00081   2.68757
    R2        2.59928  -0.01039   0.00000  -0.01588  -0.01595   2.58334
    R3        2.59862   0.00714   0.00000   0.01123   0.01126   2.60988
    R4        3.21764  -0.01537   0.00000  -0.03769  -0.03729   3.18035
    R5        3.09947  -0.05407   0.00000  -0.13668  -0.13634   2.96313
    R6        3.08621  -0.02909   0.00000  -0.07124  -0.07067   3.01554
    R7        3.15644  -0.04995   0.00000  -0.13394  -0.13357   3.02287
    R8        3.39415  -0.02476   0.00000  -0.06687  -0.06734   3.32681
    R9        3.17035  -0.00721   0.00000  -0.01941  -0.01983   3.15051
   R10        3.12855  -0.00428   0.00000  -0.01344  -0.01377   3.11478
   R11        3.22255  -0.01009   0.00000  -0.02888  -0.02896   3.19359
   R12        3.19418  -0.02538   0.00000  -0.06836  -0.06854   3.12565
   R13        3.12471  -0.01857   0.00000  -0.04811  -0.04813   3.07659
   R14        3.10076  -0.01743   0.00000  -0.04473  -0.04472   3.05604
   R15        3.09621  -0.01183   0.00000  -0.03074  -0.03075   3.06546
   R16        3.39589  -0.01515   0.00000  -0.03901  -0.03908   3.35681
   R17        3.36338  -0.00401   0.00000  -0.01620  -0.01618   3.34720
   R18        3.20894  -0.05137   0.00000  -0.13560  -0.13567   3.07327
    A1        2.25939   0.00278   0.00000   0.00805   0.00781   2.26720
    A2        1.92974  -0.01311   0.00000  -0.02742  -0.02765   1.90209
    A3        2.07323   0.00851   0.00000   0.01065   0.01023   2.08346
    A4        1.61585   0.01017   0.00000   0.02389   0.02410   1.63995
    A5        1.54927   0.01436   0.00000   0.03498   0.03563   1.58490
    A6        1.45423  -0.00069   0.00000  -0.00299  -0.00323   1.45100
    A7        1.54962  -0.00284   0.00000  -0.00644  -0.00645   1.54317
    A8        2.74878  -0.00714   0.00000  -0.01710  -0.01736   2.73142
    A9        1.58422   0.00382   0.00000   0.01108   0.01125   1.59547
   A10        2.47685  -0.00249   0.00000  -0.00442  -0.00468   2.47218
   A11        1.63773  -0.00137   0.00000  -0.00206  -0.00214   1.63559
   A12        2.47978  -0.00743   0.00000  -0.01513  -0.01522   2.46457
   A13        1.44660   0.00836   0.00000   0.01844   0.01842   1.46501
   A14        1.54659   0.00449   0.00000   0.01282   0.01292   1.55951
   A15        1.54589  -0.00004   0.00000  -0.00673  -0.00700   1.53889
   A16        1.45482  -0.00801   0.00000  -0.02574  -0.02559   1.42923
   A17        1.60710  -0.00599   0.00000  -0.01566  -0.01562   1.59148
   A18        1.54208   0.00021   0.00000  -0.00022  -0.00021   1.54187
   A19        1.49941  -0.00663   0.00000  -0.01618  -0.01627   1.48314
   A20        1.57063  -0.00699   0.00000  -0.01691  -0.01700   1.55363
   A21        1.62214  -0.00572   0.00000  -0.01147  -0.01179   1.61035
   A22        1.99570  -0.00335   0.00000  -0.00472  -0.00470   1.99100
   A23        1.50144   0.00111   0.00000   0.00172   0.00189   1.50333
   A24        1.59354  -0.00242   0.00000  -0.00571  -0.00589   1.58765
   A25        1.37607  -0.00450   0.00000  -0.00732  -0.00734   1.36873
   A26        1.50774  -0.00617   0.00000  -0.01723  -0.01743   1.49031
   A27        1.61830  -0.00069   0.00000  -0.00124  -0.00156   1.61674
   A28        1.65356  -0.00591   0.00000  -0.01668  -0.01672   1.63684
   A29        1.54279   0.00567   0.00000   0.01074   0.01077   1.55356
   A30        1.38712  -0.01229   0.00000  -0.02125  -0.02118   1.36594
   A31        1.75009   0.00779   0.00000   0.01530   0.01517   1.76526
   A32        1.58609   0.00353   0.00000   0.00792   0.00799   1.59409
   A33        1.56540  -0.00710   0.00000  -0.02067  -0.02110   1.54430
   A34        3.06192  -0.01400   0.00000  -0.04140  -0.04121   3.02071
   A35        3.21135   0.01335   0.00000   0.03222   0.03246   3.24381
    D1       -2.96442   0.00499   0.00000   0.01727   0.01727  -2.94715
    D2        0.10742  -0.00836   0.00000  -0.01495  -0.01520   0.09222
    D3       -1.46217  -0.00155   0.00000   0.00154   0.00137  -1.46080
    D4       -0.04735  -0.00399   0.00000  -0.02861  -0.02825  -0.07559
    D5        3.02449  -0.01734   0.00000  -0.06083  -0.06071   2.96378
    D6        1.45490  -0.01052   0.00000  -0.04434  -0.04414   1.41076
    D7        1.38351  -0.00173   0.00000  -0.01263  -0.01278   1.37072
    D8        2.88552  -0.00770   0.00000  -0.02933  -0.02964   2.85588
    D9       -1.51794   0.01025   0.00000   0.04052   0.04075  -1.47719
   D10       -0.01593   0.00428   0.00000   0.02382   0.02389   0.00797
   D11       -2.92812   0.00400   0.00000   0.01597   0.01558  -2.91253
   D12        0.01605  -0.00434   0.00000  -0.02406  -0.02404  -0.00800
   D13        1.54901   0.00529   0.00000   0.01779   0.01840   1.56741
   D14       -0.00113   0.00376   0.00000   0.01437   0.01456   0.01342
   D15        0.00123  -0.00409   0.00000  -0.01559  -0.01552  -0.01430
   D16       -1.54538  -0.00946   0.00000  -0.02551  -0.02547  -1.57084
   D17       -1.25317   0.00031   0.00000  -0.00030  -0.00052  -1.25369
   D18        0.28889   0.00027   0.00000  -0.00111  -0.00107   0.28782
   D19       -0.31036   0.00141   0.00000   0.00575   0.00574  -0.30462
   D20        1.20750  -0.00004   0.00000   0.00234   0.00244   1.20994
   D21        1.31758  -0.00214   0.00000  -0.00358  -0.00345   1.31413
   D22        2.77412  -0.01005   0.00000  -0.02904  -0.02880   2.74532
   D23       -0.28954   0.00365   0.00000   0.01160   0.01168  -0.27786
   D24       -1.45543   0.00417   0.00000   0.01119   0.01149  -1.44393
   D25        0.00112  -0.00374   0.00000  -0.01427  -0.01387  -0.01274
   D26       -3.06254   0.00995   0.00000   0.02637   0.02662  -3.03592
   D27        0.28330  -0.00179   0.00000  -0.00588  -0.00595   0.27735
   D28       -1.71017   0.00124   0.00000  -0.00180  -0.00193  -1.71210
   D29        1.50900  -0.00445   0.00000  -0.01470  -0.01478   1.49422
   D30       -0.48447  -0.00142   0.00000  -0.01061  -0.01075  -0.49522
   D31       -0.00116   0.00387   0.00000   0.01476   0.01480   0.01364
   D32        1.65119  -0.00178   0.00000  -0.00143  -0.00142   1.64977
   D33       -1.20905   0.00644   0.00000   0.02367   0.02375  -1.18530
   D34        0.44331   0.00079   0.00000   0.00748   0.00752   0.45083
   D35        0.10313   0.00627   0.00000   0.01557   0.01592   0.11905
   D36        1.69897   0.00068   0.00000   0.00401   0.00410   1.70307
   D37       -1.59356   0.00402   0.00000   0.00543   0.00584  -1.58772
   D38        0.00227  -0.00157   0.00000  -0.00613  -0.00598  -0.00370
   D39       -1.17776   0.00149   0.00000   0.00722   0.00730  -1.17046
   D40       -2.55193   0.00605   0.00000   0.01479   0.01482  -2.53711
   D41        1.30354  -0.00068   0.00000   0.00394   0.00381   1.30736
   D42       -0.07062   0.00388   0.00000   0.01151   0.01133  -0.05929
   D43        0.18487   0.00716   0.00000   0.02395   0.02428   0.20914
   D44        1.75295   0.00070   0.00000   0.00461   0.00456   1.75751
   D45       -1.49348   0.00320   0.00000   0.00941   0.00969  -1.48379
   D46        0.07461  -0.00327   0.00000  -0.00993  -0.01003   0.06458
   D47        1.74438   0.00277   0.00000   0.01428   0.01368   1.75806
   D48        0.12822   0.00286   0.00000   0.01424   0.01413   0.14235
   D49       -0.28035  -0.00760   0.00000  -0.02898  -0.02927  -0.30963
   D50       -1.86572  -0.00988   0.00000  -0.03325  -0.03323  -1.89895
   D51        0.01087  -0.00294   0.00000  -0.01624  -0.01631  -0.00544
   D52        1.61735  -0.00386   0.00000  -0.01812  -0.01821   1.59914
   D53       -1.53785  -0.00216   0.00000  -0.00747  -0.00750  -1.54535
   D54        0.06863  -0.00308   0.00000  -0.00935  -0.00940   0.05923
   D55       -0.01085   0.00299   0.00000   0.01630   0.01624   0.00539
   D56        1.53865   0.00733   0.00000   0.02964   0.02957   1.56822
   D57       -0.07003   0.00331   0.00000   0.01003   0.01003  -0.06000
   D58        1.68000   0.01099   0.00000   0.02500   0.02475   1.70475
   D59       -1.51716  -0.00496   0.00000  -0.00828  -0.00816  -1.52532
   D60        0.23287   0.00272   0.00000   0.00669   0.00657   0.23944
         Item               Value     Threshold  Converged?
 Maximum Force            0.054065     0.000450     NO 
 RMS     Force            0.011683     0.000300     NO 
 Maximum Displacement     0.112294     0.001800     NO 
 RMS     Displacement     0.028011     0.001200     NO 
 Predicted change in Energy=-3.702381D-02
 Lowest energy point so far.  Saving SCF results.
 GradGradGradGradGradGradGradGradGradGradGradGradGradGradGradGradGradGrad

 Leave Link  103 at Thu Mar 19 17:18:16 2026, MaxMem=   536870912 cpu:         0.0
 (Enter C:\G09W\l202.exe)
                          Input orientation:                          
 ---------------------------------------------------------------------
 Center     Atomic      Atomic             Coordinates (Angstroms)
 Number     Number       Type             X           Y           Z
 ---------------------------------------------------------------------
      1          8           0        0.740340   -0.501731    0.115617
      2          6           0       -0.063868   -1.217649   -1.622290
      3          6           0        1.904136    1.176898   -0.584905
      4          6           0       -0.397503    1.015104   -1.059799
      5          6           0       -0.183121    1.112921    1.220575
      6          6           0       -1.573494   -0.612100    0.039950
      7          6           0       -0.208677   -1.149562    1.767641
      8          1           0        1.026790   -0.011601   -1.188366
      9          1           0        0.585619    1.911497   -0.055092
     10          1           0        1.055076    0.022597    1.338247
     11          1           0       -1.313260   -0.275677   -1.520302
     12          1           0       -0.239536   -1.470866    0.026040
     13          1           0       -1.332504    0.000166    1.522682
 ---------------------------------------------------------------------
                    Distance matrix (angstroms):
                    1          2          3          4          5
     1  O    0.000000
     2  C    2.044409   0.000000
     3  C    2.159386   3.268495   0.000000
     4  C    2.230937   2.326562   2.355684   0.000000
     5  C    2.163519   3.677996   2.760524   2.292517   0.000000
     6  C    2.317701   2.325661   3.960413   2.289148   2.510520
     7  C    2.012337   3.393705   3.925668   3.565929   2.327824
     8  H    1.422200   1.682967   1.595754   1.760473   2.920861
     9  H    2.424201   3.559424   1.599633   1.667179   1.689973
    10  H    1.367042   3.399268   2.398297   2.974169   1.654021
    11  H    2.635262   1.568022   3.651929   1.648269   3.273809
    12  H    1.381088   1.676892   3.461103   2.717360   2.847113
    13  H    2.555077   3.603242   4.037631   2.928060   1.628059
                    6          7          8          9         10
     6  C    0.000000
     7  C    2.266386   0.000000
     8  H    2.937829   3.399898   0.000000
     9  H    3.322551   3.650115   2.275357   0.000000
    10  H    2.999633   1.776346   2.527003   2.393685   0.000000
    11  H    1.617186   3.576918   2.378183   3.245969   3.724149
    12  H    1.586542   1.771260   2.282064   3.482505   2.372412
    13  H    1.622171   1.626304   3.593910   3.133968   2.394798
                   11         12         13
    11  H    0.000000
    12  H    2.229918   0.000000
    13  H    3.055522   2.366105   0.000000
 Stoichiometry    C6H6O
 Framework group  C1[X(C6H6O)]
 Deg. of freedom    33
 Full point group                 C1      NOp   1
 RotChk:  IX=0 Diff= 4.24D-02
 Largest Abelian subgroup         C1      NOp   1
 Largest concise Abelian subgroup C1      NOp   1
                         Standard orientation:                         
 ---------------------------------------------------------------------
 Center     Atomic      Atomic             Coordinates (Angstroms)
 Number     Number       Type             X           Y           Z
 ---------------------------------------------------------------------
      1          8           0        0.084959   -0.116630   -0.827269
      2          6           0        0.220206    1.907202   -0.571498
      3          6           0        2.113660   -0.754313   -0.452191
      4          6           0        0.923289    0.503004    1.145125
      5          6           0       -0.220998   -1.460060    0.840785
      6          6           0       -1.316609    0.797854    0.776184
      7          6           0       -1.800847   -0.813739   -0.741969
      8          1           0        1.284907    0.603831   -0.574855
      9          1           0        1.421033   -1.076529    0.953252
     10          1           0       -0.149036   -1.463407   -0.811666
     11          1           0       -0.067954    1.807749    0.966606
     12          1           0       -0.983237    0.757192   -0.774405
     13          1           0       -1.697596   -0.775482    0.880603
 ---------------------------------------------------------------------
 Rotational constants (GHZ):      3.1066280      2.6314328      2.1458378
 Leave Link  202 at Thu Mar 19 17:18:16 2026, MaxMem=   536870912 cpu:         0.0
 (Enter C:\G09W\l301.exe)
 Standard basis: 6-31G(d) (6D, 7F)
 Ernie: Thresh=  0.10000D-02 Tol=  0.10000D-05 Strict=F.
 There are   117 symmetry adapted cartesian basis functions of A   symmetry.
 There are   117 symmetry adapted basis functions of A   symmetry.
   117 basis functions,   220 primitive gaussians,   117 cartesian basis functions
    25 alpha electrons       25 beta electrons
       nuclear repulsion energy       243.3152047555 Hartrees.
 IExCor=  402 DFT=T Ex+Corr=B3LYP ExCW=0 ScaHFX=  0.200000
 ScaDFX=  0.800000  0.720000  1.000000  0.810000 ScalE2=  1.000000  1.000000
 IRadAn=      0 IRanWt=     -1 IRanGd=            0 ICorTp=0 IEmpDi=  4
 NAtoms=   13 NActive=   13 NUniq=   13 SFac= 1.00D+00 NAtFMM=   60 NAOKFM=F Big=F
 Integral buffers will be    131072 words long.
 Raffenetti 2 integral format.
 Two-electron integral symmetry is turned on.
 Leave Link  301 at Thu Mar 19 17:18:17 2026, MaxMem=   536870912 cpu:         0.0
 (Enter C:\G09W\l302.exe)
 NPDir=0 NMtPBC=     1 NCelOv=     1 NCel=       1 NClECP=     1 NCelD=      1
         NCelK=      1 NCelE2=     1 NClLst=     1 CellRange=     0.0.
 One-electron integrals computed using PRISM.
 NBasis=   117 RedAO= T EigKep=  1.74D-02  NBF=   117
 NBsUse=   117 1.00D-06 EigRej= -1.00D+00 NBFU=   117
 Precomputing XC quadrature grid using
 IXCGrd= 4 IRadAn=           0 IRanWt=          -1 IRanGd=           0 AccXCQ= 0.00D+00.
 Generated NRdTot=       0 NPtTot=           0 NUsed=           0 NTot=          32
 NSgBfM=   117   117   117   117   117 MxSgAt=    13 MxSgA2=    13.
 Leave Link  302 at Thu Mar 19 17:18:18 2026, MaxMem=   536870912 cpu:         1.0
 (Enter C:\G09W\l303.exe)
 DipDrv:  MaxL=1.
 Leave Link  303 at Thu Mar 19 17:18:18 2026, MaxMem=   536870912 cpu:         0.0
 (Enter C:\G09W\l401.exe)
 Initial guess from the checkpoint file:  "phenol_xtb.chk"
 B after Tr=     0.000000    0.000000    0.000000
         Rot=    0.999891   -0.000554   -0.005535   -0.013668 Ang=  -1.69 deg.
 Guess basis will be translated and rotated to current coordinates.
 JPrj=2 DoOrth=T DoCkMO=T.
 Generating alternative initial guess.
 ExpMin= 1.61D-01 ExpMax= 5.48D+03 ExpMxC= 8.25D+02 IAcc=1 IRadAn=         1 AccDes= 0.00D+00
 Harris functional with IExCor=  402 and IRadAn=       1 diagonalized for initial guess.
 HarFok:  IExCor=  402 AccDes= 0.00D+00 IRadAn=         1 IDoV= 1 UseB2=F ITyADJ=14
 ICtDFT=  3500011 ScaDFX=  1.000000  1.000000  1.000000  1.000000
 FoFCou: FMM=F IPFlag=           0 FMFlag=      100000 FMFlg1=           0
         NFxFlg=           0 DoJE=T BraDBF=F KetDBF=T FulRan=T
         wScrn=  0.000000 ICntrl=     500 IOpCl=  0 I1Cent=   200000004 NGrid=           0
         NMat0=    1 NMatS0=      1 NMatT0=    0 NMatD0=    1 NMtDS0=    0 NMtDT0=    0
 Petite list used in FoFCou.
 Harris En= -305.962020883255    
 Leave Link  401 at Thu Mar 19 17:18:19 2026, MaxMem=   536870912 cpu:         1.0
 (Enter C:\G09W\l502.exe)
 Closed shell SCF:
 Using DIIS extrapolation, IDIIS=  1040.
 Integral symmetry usage will be decided dynamically.
 Keep R1 ints in memory in canonical form, NReq=24830210.
 IVT=       61204 IEndB=       61204 NGot=   536870912 MDV=   512980553
 LenX=   512980553 LenY=   512966423
 Requested convergence on RMS density matrix=1.00D-08 within 128 cycles.
 Requested convergence on MAX density matrix=1.00D-06.
 Requested convergence on             energy=1.00D-06.
 No special actions if energy rises.
 FoFCou: FMM=F IPFlag=           0 FMFlag=           0 FMFlg1=           0
         NFxFlg=           0 DoJE=F BraDBF=F KetDBF=F FulRan=T
         wScrn=  0.000000 ICntrl=     600 IOpCl=  0 I1Cent=           0 NGrid=           0
         NMat0=    1 NMatS0=   6903 NMatT0=    0 NMatD0=    1 NMtDS0=    0 NMtDT0=    0
 Symmetry not used in FoFCou.
 Integral accuracy reduced to 1.0D-05 until final iterations.

 Cycle   1  Pass 0  IDiag  1:
 E= -305.958844020458    
 DIIS: error= 3.66D-03 at cycle   1 NSaved=   1.
 NSaved= 1 IEnMin= 1 EnMin= -305.958844020458     IErMin= 1 ErrMin= 3.66D-03
 ErrMax= 3.66D-03  0.00D+00 EMaxC= 1.00D-01 BMatC= 2.16D-03 BMatP= 2.16D-03
 IDIUse=3 WtCom= 9.63D-01 WtEn= 3.66D-02
 Coeff-Com:  0.100D+01
 Coeff-En:   0.100D+01
 Coeff:      0.100D+01
 Gap=     1.752 Goal=   None    Shift=    0.000
 GapD=    1.752 DampG=2.000 DampE=1.000 DampFc=2.0000 IDamp=-1.
 RMSDP=1.00D-03 MaxDP=1.58D-02              OVMax= 3.45D-02

 Cycle   2  Pass 0  IDiag  1:
 E= -305.961232961548     Delta-E=       -0.002388941091 Rises=F Damp=F
 DIIS: error= 3.26D-03 at cycle   2 NSaved=   2.
 NSaved= 2 IEnMin= 2 EnMin= -305.961232961548     IErMin= 2 ErrMin= 3.26D-03
 ErrMax= 3.26D-03  0.00D+00 EMaxC= 1.00D-01 BMatC= 1.98D-03 BMatP= 2.16D-03
 IDIUse=3 WtCom= 9.67D-01 WtEn= 3.26D-02
 Coeff-Com:  0.483D+00 0.517D+00
 Coeff-En:   0.643D-01 0.936D+00
 Coeff:      0.469D+00 0.531D+00
 Gap=     0.085 Goal=   None    Shift=    0.000
 RMSDP=9.56D-04 MaxDP=1.73D-02 DE=-2.39D-03 OVMax= 5.53D-02

 Cycle   3  Pass 0  IDiag  1:
 E= -305.955409518731     Delta-E=        0.005823442817 Rises=F Damp=F
 DIIS: error= 7.03D-03 at cycle   3 NSaved=   3.
 NSaved= 3 IEnMin= 2 EnMin= -305.961232961548     IErMin= 2 ErrMin= 3.26D-03
 ErrMax= 7.03D-03  0.00D+00 EMaxC= 1.00D-01 BMatC= 6.27D-03 BMatP= 1.98D-03
 IDIUse=3 WtCom= 1.07D-01 WtEn= 8.93D-01
 Coeff-Com:  0.117D+00 0.581D+00 0.302D+00
 Coeff-En:   0.000D+00 0.690D+00 0.310D+00
 Coeff:      0.125D-01 0.678D+00 0.309D+00
 Gap=     0.090 Goal=   None    Shift=    0.000
 RMSDP=6.32D-04 MaxDP=1.12D-02 DE= 5.82D-03 OVMax= 3.58D-02

 Cycle   4  Pass 0  IDiag  1:
 E= -305.963131453674     Delta-E=       -0.007721934943 Rises=F Damp=F
 DIIS: error= 1.47D-03 at cycle   4 NSaved=   4.
 NSaved= 4 IEnMin= 4 EnMin= -305.963131453674     IErMin= 4 ErrMin= 1.47D-03
 ErrMax= 1.47D-03  0.00D+00 EMaxC= 1.00D-01 BMatC= 4.73D-04 BMatP= 1.98D-03
 IDIUse=3 WtCom= 9.85D-01 WtEn= 1.47D-02
 Coeff-Com:  0.196D-01 0.434D+00 0.195D+00 0.351D+00
 Coeff-En:   0.000D+00 0.201D+00 0.000D+00 0.799D+00
 Coeff:      0.193D-01 0.431D+00 0.192D+00 0.358D+00
 Gap=     0.090 Goal=   None    Shift=    0.000
 RMSDP=2.96D-04 MaxDP=6.04D-03 DE=-7.72D-03 OVMax= 1.54D-02

 Cycle   5  Pass 0  IDiag  1:
 E= -305.963312829357     Delta-E=       -0.000181375683 Rises=F Damp=F
 DIIS: error= 1.56D-03 at cycle   5 NSaved=   5.
 NSaved= 5 IEnMin= 5 EnMin= -305.963312829357     IErMin= 4 ErrMin= 1.47D-03
 ErrMax= 1.56D-03  0.00D+00 EMaxC= 1.00D-01 BMatC= 3.17D-04 BMatP= 4.73D-04
 IDIUse=3 WtCom= 9.84D-01 WtEn= 1.56D-02
 Coeff-Com: -0.243D-01 0.251D+00 0.107D+00 0.374D+00 0.292D+00
 Coeff-En:   0.000D+00 0.000D+00 0.000D+00 0.436D+00 0.564D+00
 Coeff:     -0.240D-01 0.248D+00 0.105D+00 0.375D+00 0.296D+00
 Gap=     0.090 Goal=   None    Shift=    0.000
 RMSDP=1.63D-04 MaxDP=3.79D-03 DE=-1.81D-04 OVMax= 9.86D-03

 Cycle   6  Pass 0  IDiag  1:
 E= -305.963678440140     Delta-E=       -0.000365610783 Rises=F Damp=F
 DIIS: error= 6.26D-04 at cycle   6 NSaved=   6.
 NSaved= 6 IEnMin= 6 EnMin= -305.963678440140     IErMin= 6 ErrMin= 6.26D-04
 ErrMax= 6.26D-04  0.00D+00 EMaxC= 1.00D-01 BMatC= 3.95D-05 BMatP= 3.17D-04
 IDIUse=3 WtCom= 9.94D-01 WtEn= 6.26D-03
 Coeff-Com: -0.227D-01 0.183D+00 0.798D-01 0.298D+00 0.255D+00 0.207D+00
 Coeff-En:   0.000D+00 0.000D+00 0.000D+00 0.000D+00 0.104D+00 0.896D+00
 Coeff:     -0.226D-01 0.182D+00 0.793D-01 0.296D+00 0.254D+00 0.211D+00
 Gap=     0.090 Goal=   None    Shift=    0.000
 RMSDP=5.82D-05 MaxDP=8.11D-04 DE=-3.66D-04 OVMax= 3.01D-03

 Cycle   7  Pass 0  IDiag  1:
 E= -305.963726509074     Delta-E=       -0.000048068934 Rises=F Damp=F
 DIIS: error= 1.67D-04 at cycle   7 NSaved=   7.
 NSaved= 7 IEnMin= 7 EnMin= -305.963726509074     IErMin= 7 ErrMin= 1.67D-04
 ErrMax= 1.67D-04  0.00D+00 EMaxC= 1.00D-01 BMatC= 2.40D-06 BMatP= 3.95D-05
 IDIUse=3 WtCom= 9.98D-01 WtEn= 1.67D-03
 Coeff-Com: -0.596D-02 0.213D-01 0.168D-01 0.502D-01 0.586D-01 0.177D+00
 Coeff-Com:  0.682D+00
 Coeff-En:   0.000D+00 0.000D+00 0.000D+00 0.000D+00 0.000D+00 0.879D-01
 Coeff-En:   0.912D+00
 Coeff:     -0.595D-02 0.212D-01 0.168D-01 0.501D-01 0.585D-01 0.177D+00
 Coeff:      0.682D+00
 Gap=     0.090 Goal=   None    Shift=    0.000
 RMSDP=2.35D-05 MaxDP=6.23D-04 DE=-4.81D-05 OVMax= 1.01D-03

 Cycle   8  Pass 0  IDiag  1:
 E= -305.963727245583     Delta-E=       -0.000000736509 Rises=F Damp=F
 DIIS: error= 1.07D-04 at cycle   8 NSaved=   8.
 NSaved= 8 IEnMin= 8 EnMin= -305.963727245583     IErMin= 8 ErrMin= 1.07D-04
 ErrMax= 1.07D-04  0.00D+00 EMaxC= 1.00D-01 BMatC= 2.25D-06 BMatP= 2.40D-06
 IDIUse=3 WtCom= 9.99D-01 WtEn= 1.07D-03
 Coeff-Com: -0.148D-02-0.128D-01 0.206D-02-0.618D-02 0.933D-02 0.122D+00
 Coeff-Com:  0.617D+00 0.270D+00
 Coeff-En:   0.000D+00 0.000D+00 0.000D+00 0.000D+00 0.000D+00 0.000D+00
 Coeff-En:   0.441D+00 0.559D+00
 Coeff:     -0.148D-02-0.128D-01 0.206D-02-0.618D-02 0.932D-02 0.122D+00
 Coeff:      0.616D+00 0.271D+00
 Gap=     0.090 Goal=   None    Shift=    0.000
 RMSDP=1.44D-05 MaxDP=2.97D-04 DE=-7.37D-07 OVMax= 7.86D-04

 Cycle   9  Pass 0  IDiag  1:
 E= -305.963730130795     Delta-E=       -0.000002885212 Rises=F Damp=F
 DIIS: error= 3.08D-05 at cycle   9 NSaved=   9.
 NSaved= 9 IEnMin= 9 EnMin= -305.963730130795     IErMin= 9 ErrMin= 3.08D-05
 ErrMax= 3.08D-05  0.00D+00 EMaxC= 1.00D-01 BMatC= 1.16D-07 BMatP= 2.25D-06
 IDIUse=1 WtCom= 1.00D+00 WtEn= 0.00D+00
 Coeff-Com:  0.837D-03-0.145D-01-0.246D-02-0.185D-01-0.893D-02 0.264D-01
 Coeff-Com:  0.212D+00 0.186D+00 0.619D+00
 Coeff:      0.837D-03-0.145D-01-0.246D-02-0.185D-01-0.893D-02 0.264D-01
 Coeff:      0.212D+00 0.186D+00 0.619D+00
 Gap=     0.090 Goal=   None    Shift=    0.000
 RMSDP=6.15D-06 MaxDP=9.73D-05 DE=-2.89D-06 OVMax= 3.34D-04

 Initial convergence to 1.0D-05 achieved.  Increase integral accuracy.
 Cycle  10  Pass 1  IDiag  1:
 E= -305.963786683789     Delta-E=       -0.000056552993 Rises=F Damp=F
[...]
   A12        1.93177  -0.00453  -0.01383   0.00988   0.00000   1.93177
   A13        1.82709   0.01053   0.02319   0.01861   0.00000   1.82709
   A14        2.40027   0.01762   0.01633   0.13507   0.00001   2.40027
   A15        1.42090  -0.01306  -0.02699  -0.04182   0.00000   1.42090
   A16        1.14665   0.00087  -0.01451   0.01529   0.00000   1.14665
   A17        1.38711   0.00088  -0.00012   0.02776   0.00000   1.38711
   A18        1.24547  -0.00330  -0.01786   0.01843   0.00000   1.24547
   A19        0.62633   0.00488   0.00190   0.02466   0.00000   0.62633
   A20        0.92431  -0.00401   0.00133   0.00042   0.00000   0.92431
   A21        0.94277  -0.00366  -0.00296   0.00302   0.00000   0.94277
   A22        1.58673   0.00031   0.00392   0.03842   0.00000   1.58674
   A23        0.83748  -0.00343  -0.00949  -0.03111   0.00000   0.83748
   A24        1.03882  -0.00565  -0.00776  -0.04022   0.00000   1.03882
   A25        0.91086  -0.00219  -0.00202  -0.00300   0.00000   0.91086
   A26        0.79255  -0.00723  -0.00548  -0.06597   0.00000   0.79254
   A27        0.48389   0.00113  -0.00487   0.01008   0.00000   0.48389
   A28        0.72157  -0.00366   0.00987  -0.03221   0.00000   0.72157
   A29        1.03508  -0.00803  -0.00145  -0.07962   0.00000   1.03508
   A30        0.50347  -0.00269  -0.00404  -0.00853   0.00000   0.50347
   A31        1.74064  -0.01560  -0.00971  -0.16892  -0.00001   1.74063
   A32        1.28021  -0.00495  -0.00083  -0.05554   0.00000   1.28021
   A33        0.92226  -0.00669  -0.00624  -0.09468   0.00000   0.92225
   A34        2.53376   0.00176  -0.01462   0.04305   0.00000   2.53376
   A35        4.66924  -0.00185  -0.00823  -0.01481   0.00000   4.66924
    D1       -2.50813  -0.00781  -0.01242  -0.06390   0.00000  -2.50814
    D2       -0.89419  -0.00596  -0.00419  -0.04909   0.00000  -0.89419
    D3       -1.84141  -0.00143  -0.00570  -0.04196   0.00000  -1.84141
    D4        0.51026  -0.01507  -0.03211  -0.07877   0.00000   0.51025
    D5        2.12421  -0.01322  -0.02388  -0.06396   0.00000   2.12420
    D6        1.17699  -0.00869  -0.02539  -0.05683   0.00000   1.17698
    D7        1.27097  -0.00106  -0.00173  -0.00914   0.00000   1.27097
    D8        2.22993  -0.00689  -0.00418  -0.07139   0.00000   2.22993
    D9       -0.68450   0.00557  -0.00814   0.05775   0.00000  -0.68450
   D10        0.27446  -0.00025  -0.01060  -0.00450   0.00000   0.27446
   D11       -2.31243   0.00197  -0.00800   0.05769   0.00000  -2.31243
   D12       -0.27819   0.00001   0.01020   0.00296   0.00000  -0.27819
   D13       -2.74907  -0.00859  -0.00462  -0.02335   0.00000  -2.74907
   D14        1.93748   0.00086   0.00766  -0.02272   0.00000   1.93748
   D15       -1.13220  -0.00130  -0.00964  -0.02826   0.00000  -1.13220
   D16        3.05486   0.01694   0.01168   0.16155   0.00001   3.05487
   D17        0.25928   0.00376   0.01273   0.00928   0.00000   0.25928
   D18        1.55972  -0.00109  -0.00960   0.01208   0.00000   1.55972
   D19       -1.56103   0.00095   0.00968  -0.01381   0.00000  -1.56103
   D20       -0.98539  -0.00945  -0.01384  -0.11502   0.00000  -0.98539
   D21        1.53350   0.00241   0.00733  -0.03744   0.00000   1.53350
   D22        2.82599   0.00854   0.00683  -0.03498   0.00000   2.82599
   D23       -0.05035  -0.00263  -0.00562  -0.05938   0.00000  -0.05036
   D24       -1.60809  -0.00314   0.00794   0.01158   0.00000  -1.60809
   D25       -0.31560   0.00299   0.00744   0.01404   0.00000  -0.31560
   D26        3.09124  -0.00818  -0.00501  -0.01036   0.00000   3.09124
   D27        0.04940   0.00249   0.00570   0.05811   0.00000   0.04941
   D28       -2.27004  -0.01145  -0.02413  -0.08024   0.00000  -2.27005
   D29       -2.00267   0.00468  -0.67674   0.07772  -0.00926  -2.01193
   D30        1.96107  -0.00926  -0.70657  -0.06063  -0.00926   1.95181
   D31        1.17478  -0.00346  -0.01049  -0.06646   0.00000   1.17478
   D32        1.90174   0.00649   0.01094   0.04088   0.00000   1.90175
   D33       -3.05633  -0.00726   0.67213  -0.07174   0.00926  -3.04707
   D34       -2.32937   0.00268   0.69357   0.03560   0.00926  -2.32011
   D35        1.22401   0.00389   0.01633   0.05960   0.00000   1.22402
   D36        1.85866  -0.00760  -0.00530  -0.03297   0.00000   1.85866
   D37       -1.07420   0.00493   0.01575   0.06819   0.00000  -1.07419
   D38       -0.43955  -0.00656  -0.00587  -0.02438   0.00000  -0.43955
   D39       -1.56725  -0.00540  -0.01390  -0.03723   0.00000  -1.56725
   D40       -2.70604  -0.00830  -0.01829  -0.07850   0.00000  -2.70605
   D41        1.32889   0.00072   0.00041   0.03905   0.00000   1.32889
   D42        0.19010  -0.00219  -0.00398  -0.00222   0.00000   0.19010
   D43        1.32562   0.00508   0.00906   0.05548   0.00000   1.32562
   D44        2.13362   0.00369   0.00698   0.01346   0.00000   2.13362
   D45       -0.94893   0.00502   0.00616   0.06227   0.00000  -0.94893
   D46       -0.14093   0.00363   0.00408   0.02025   0.00000  -0.14093
   D47        1.58437   0.02694   0.01157   0.25254   0.00001   1.58438
   D48        1.09726   0.01767   0.00897   0.15907   0.00001   1.09726
   D49       -1.57668  -0.00776  -0.00350  -0.10076   0.00000  -1.57668
   D50       -2.62995  -0.01174  -0.00770  -0.12708   0.00000  -2.62995
   D51       -0.02804  -0.00172  -0.00431  -0.00244   0.00000  -0.02804
   D52        1.40574  -0.00384  -0.01091  -0.01926   0.00000   1.40574
   D53       -1.65650   0.00066   0.00596  -0.00365   0.00000  -1.65650
   D54       -0.22271  -0.00146  -0.00065  -0.02047   0.00000  -0.22271
   D55        0.01618   0.00106   0.00277   0.00012   0.00000   0.01618
   D56        2.40757   0.01703   0.01557   0.13181   0.00001   2.40758
   D57        0.31636   0.00168  -0.00020   0.03023   0.00000   0.31636
   D58        2.35170  -0.01113  -0.00886  -0.09063   0.00000   2.35170
   D59       -1.47083  -0.00128  -0.00735   0.03645   0.00000  -1.47082
   D60        0.56452  -0.01409  -0.01601  -0.08440   0.00000   0.56452
         Item               Value     Threshold  Converged?
 Maximum Force            0.026935     0.000450     NO 
 RMS     Force            0.008466     0.000300     NO 
 Maximum Displacement     0.000008     0.001800     YES
 RMS     Displacement     0.000002     0.001200     YES
 Predicted change in Energy=-2.379336D-06
 Lowest energy point so far.  Saving SCF results.
 GradGradGradGradGradGradGradGradGradGradGradGradGradGradGradGradGradGrad

 Leave Link  103 at Thu Mar 19 17:27:50 2026, MaxMem=   536870912 cpu:         2.0
 (Enter C:\G09W\l202.exe)
                          Input orientation:                          
 ---------------------------------------------------------------------
 Center     Atomic      Atomic             Coordinates (Angstroms)
 Number     Number       Type             X           Y           Z
 ---------------------------------------------------------------------
      1          8           0        1.089254   -0.698540    1.156761
      2          6           0       -0.841029   -0.608493   -0.952308
      3          6           0        1.255197    1.194546   -0.774931
      4          6           0       -0.163302    0.757249   -0.790736
      5          6           0       -0.442774    1.031336    0.701480
      6          6           0       -1.237925   -0.770469    0.510840
      7          6           0       -0.260383   -0.697228    1.522785
      8          1           0        1.560752    0.281378   -1.299623
      9          1           0        0.959723    2.068729   -0.171624
     10          1           0        1.406272   -0.411601    2.026104
     11          1           0       -1.642402   -0.970061   -1.606150
     12          1           0       -0.070004   -1.427609   -1.226681
     13          1           0       -1.613379    0.250759    0.904082
 ---------------------------------------------------------------------
                    Distance matrix (angstroms):
                    1          2          3          4          5
     1  O    0.000000
     2  C    2.860468   0.000000
     3  C    2.709751   2.770664   0.000000
     4  C    2.735135   1.533189   1.484459   0.000000
     5  C    2.355178   2.362765   2.255999   1.542704   0.000000
     6  C    2.416227   1.524653   3.424931   2.276585   1.978664
     7  C    1.398391   2.543838   3.339954   2.734467   1.922431
     8  H    2.686331   2.584773   1.096604   1.859510   2.929328
     9  H    3.072322   3.319592   1.102489   1.834248   1.950766
    10  H    0.968808   3.736317   3.232388   3.429921   2.693634
    11  H    3.894784   1.095645   3.711136   2.415830   3.281745
    12  H    2.748858   1.157891   2.972530   2.229878   3.146931
    13  H    2.875629   2.186555   3.455220   2.287283   1.421501
                    6          7          8          9         10
     6  C    0.000000
     7  C    1.408895   0.000000
     8  H    3.495247   3.498598   0.000000
     9  H    3.654649   3.465573   2.197326   0.000000
    10  H    3.068646   1.764271   3.400668   3.343868   0.000000
    11  H    2.164506   3.431421   3.452572   4.250078   4.774888
    12  H    2.194278   2.851187   2.363329   3.794452   3.713795
    13  H    1.156940   1.764106   3.864241   3.329115   3.288761
                   11         12         13
    11  H    0.000000
    12  H    1.681005   0.000000
    13  H    2.791506   3.120749   0.000000
 Stoichiometry    C6H6O
 Framework group  C1[X(C6H6O)]
 Deg. of freedom    33
 Full point group                 C1      NOp   1
 RotChk:  IX=3 Diff= 9.96D-06
 Largest Abelian subgroup         C1      NOp   1
 Largest concise Abelian subgroup C1      NOp   1
                         Standard orientation:                         
 ---------------------------------------------------------------------
 Center     Atomic      Atomic             Coordinates (Angstroms)
 Number     Number       Type             X           Y           Z
 ---------------------------------------------------------------------
      1          8           0        0.823718    1.254046   -0.629779
      2          6           0       -0.227899   -1.404996   -0.553126
      3          6           0       -1.807532    0.833049   -0.137807
      4          6           0       -1.143993   -0.446607    0.216895
      5          6           0       -0.137100    0.155479    1.218691
      6          6           0        1.059706   -1.015649    0.164544
      7          6           0        1.477888    0.329505    0.190453
      8          1           0       -1.718057    0.603426   -1.206362
      9          1           0       -1.818168    1.102499    0.931195
     10          1           0        1.194660    2.030144   -0.184062
     11          1           0       -0.256059   -2.486886   -0.723887
     12          1           0       -0.145734   -1.099776   -1.667038
     13          1           0        0.827194   -0.886465    1.290492
 ---------------------------------------------------------------------
 Rotational constants (GHZ):      4.0684942      3.3374168      2.4963336
 Leave Link  202 at Thu Mar 19 17:27:50 2026, MaxMem=   536870912 cpu:         0.0
 (Enter C:\G09W\l301.exe)
 Standard basis: 6-31G(d) (6D, 7F)
 Ernie: Thresh=  0.10000D-02 Tol=  0.10000D-05 Strict=F.
 There are   117 symmetry adapted cartesian basis functions of A   symmetry.
 There are   117 symmetry adapted basis functions of A   symmetry.
   117 basis functions,   220 primitive gaussians,   117 cartesian basis functions
    25 alpha electrons       25 beta electrons
       nuclear repulsion energy       273.8875916343 Hartrees.
 IExCor=  402 DFT=T Ex+Corr=B3LYP ExCW=0 ScaHFX=  0.200000
 ScaDFX=  0.800000  0.720000  1.000000  0.810000 ScalE2=  1.000000  1.000000
 IRadAn=      0 IRanWt=     -1 IRanGd=            0 ICorTp=0 IEmpDi=  4
 NAtoms=   13 NActive=   13 NUniq=   13 SFac= 1.00D+00 NAtFMM=   60 NAOKFM=F Big=F
 Integral buffers will be    131072 words long.
 Raffenetti 2 integral format.
 Two-electron integral symmetry is turned on.
 Leave Link  301 at Thu Mar 19 17:27:50 2026, MaxMem=   536870912 cpu:         0.0
 (Enter C:\G09W\l302.exe)
 NPDir=0 NMtPBC=     1 NCelOv=     1 NCel=       1 NClECP=     1 NCelD=      1
         NCelK=      1 NCelE2=     1 NClLst=     1 CellRange=     0.0.
 One-electron integrals computed using PRISM.
 NBasis=   117 RedAO= T EigKep=  2.52D-03  NBF=   117
 NBsUse=   117 1.00D-06 EigRej= -1.00D+00 NBFU=   117
 Precomputing XC quadrature grid using
 IXCGrd= 4 IRadAn=           0 IRanWt=          -1 IRanGd=           0 AccXCQ= 0.00D+00.
 Generated NRdTot=       0 NPtTot=           0 NUsed=           0 NTot=          32
 NSgBfM=   117   117   117   117   117 MxSgAt=    13 MxSgA2=    13.
 Leave Link  302 at Thu Mar 19 17:27:51 2026, MaxMem=   536870912 cpu:         1.0
 (Enter C:\G09W\l303.exe)
 DipDrv:  MaxL=1.
 Leave Link  303 at Thu Mar 19 17:27:51 2026, MaxMem=   536870912 cpu:         0.0
 (Enter C:\G09W\l401.exe)
 Initial guess from the checkpoint file:  "phenol_xtb.chk"
 B after Tr=     0.000000    0.000000    0.000000
         Rot=    1.000000   -0.000001    0.000001    0.000003 Ang=   0.00 deg.
 Guess basis will be translated and rotated to current coordinates.
 JPrj=2 DoOrth=T DoCkMO=T.
 Leave Link  401 at Thu Mar 19 17:27:51 2026, MaxMem=   536870912 cpu:         0.0
 (Enter C:\G09W\l502.exe)
 Closed shell SCF:
 Using DIIS extrapolation, IDIIS=  1040.
 Integral symmetry usage will be decided dynamically.
 Keep R1 ints in memory in canonical form, NReq=24830210.
 IVT=       61204 IEndB=       61204 NGot=   536870912 MDV=   512980553
 LenX=   512980553 LenY=   512966423
 Requested convergence on RMS density matrix=1.00D-08 within 128 cycles.
 Requested convergence on MAX density matrix=1.00D-06.
 Requested convergence on             energy=1.00D-06.
 No special actions if energy rises.
 FoFCou: FMM=F IPFlag=           0 FMFlag=           0 FMFlg1=           0
         NFxFlg=           0 DoJE=F BraDBF=F KetDBF=F FulRan=T
         wScrn=  0.000000 ICntrl=     600 IOpCl=  0 I1Cent=           0 NGrid=           0
         NMat0=    1 NMatS0=   6903 NMatT0=    0 NMatD0=    1 NMtDS0=    0 NMtDT0=    0
 Symmetry not used in FoFCou.

 Cycle   1  Pass 1  IDiag  1:
 E= -306.953363528951    
 DIIS: error= 2.33D-07 at cycle   1 NSaved=   1.
 NSaved= 1 IEnMin= 1 EnMin= -306.953363528951     IErMin= 1 ErrMin= 2.33D-07
 ErrMax= 2.33D-07  0.00D+00 EMaxC= 1.00D-01 BMatC= 2.40D-11 BMatP= 2.40D-11
 IDIUse=1 WtCom= 1.00D+00 WtEn= 0.00D+00
 Coeff-Com:  0.100D+01
 Coeff:      0.100D+01
 Gap=     1.529 Goal=   None    Shift=    0.000
 RMSDP=9.87D-08 MaxDP=1.79D-06              OVMax= 2.56D-06

 Cycle   2  Pass 1  IDiag  1:
 E= -306.953363528992     Delta-E=       -0.000000000041 Rises=F Damp=F
 DIIS: error= 1.16D-07 at cycle   2 NSaved=   2.
 NSaved= 2 IEnMin= 2 EnMin= -306.953363528992     IErMin= 2 ErrMin= 1.16D-07
 ErrMax= 1.16D-07  0.00D+00 EMaxC= 1.00D-01 BMatC= 3.68D-12 BMatP= 2.40D-11
 IDIUse=1 WtCom= 1.00D+00 WtEn= 0.00D+00
 Coeff-Com:  0.164D+00 0.836D+00
 Coeff:      0.164D+00 0.836D+00
 Gap=     0.085 Goal=   None    Shift=    0.000
 RMSDP=3.38D-08 MaxDP=6.09D-07 DE=-4.13D-11 OVMax= 1.04D-06

 Cycle   3  Pass 1  IDiag  1:
 E= -306.953363529006     Delta-E=       -0.000000000014 Rises=F Damp=F
 DIIS: error= 1.15D-07 at cycle   3 NSaved=   3.
 NSaved= 3 IEnMin= 3 EnMin= -306.953363529006     IErMin= 3 ErrMin= 1.15D-07
 ErrMax= 1.15D-07  0.00D+00 EMaxC= 1.00D-01 BMatC= 4.63D-12 BMatP= 3.68D-12
 IDIUse=1 WtCom= 1.00D+00 WtEn= 0.00D+00
 Coeff-Com: -0.101D-01 0.534D+00 0.477D+00
 Coeff:     -0.101D-01 0.534D+00 0.477D+00
 Gap=     0.085 Goal=   None    Shift=    0.000
 RMSDP=2.06D-08 MaxDP=3.64D-07 DE=-1.38D-11 OVMax= 9.22D-07

 Cycle   4  Pass 1  IDiag  1:
 E= -306.953363529011     Delta-E=       -0.000000000005 Rises=F Damp=F
 DIIS: error= 4.45D-08 at cycle   4 NSaved=   4.
 NSaved= 4 IEnMin= 4 EnMin= -306.953363529011     IErMin= 4 ErrMin= 4.45D-08
 ErrMax= 4.45D-08  0.00D+00 EMaxC= 1.00D-01 BMatC= 4.53D-13 BMatP= 3.68D-12
 IDIUse=1 WtCom= 1.00D+00 WtEn= 0.00D+00
 Coeff-Com: -0.181D-01 0.250D+00 0.297D+00 0.471D+00
 Coeff:     -0.181D-01 0.250D+00 0.297D+00 0.471D+00
 Gap=     0.085 Goal=   None    Shift=    0.000
 RMSDP=7.24D-09 MaxDP=2.24D-07 DE=-5.23D-12 OVMax= 3.66D-07

 SCF Done:  E(RB3LYP) =  -306.953363529     A.U. after    4 cycles
            NFock=  4  Conv=0.72D-08     -V/T= 2.0093
 KE= 3.041321349471D+02 PE=-1.261255842831D+03 EE= 3.762827527207D+02
 Leave Link  502 at Thu Mar 19 17:27:57 2026, MaxMem=   536870912 cpu:         5.0
 (Enter C:\G09W\l701.exe)
 Compute integral first derivatives.
 ... and contract with generalized density number  0.
 Leave Link  701 at Thu Mar 19 17:27:57 2026, MaxMem=   536870912 cpu:         0.0
 (Enter C:\G09W\l702.exe)
 L702 exits ... SP integral derivatives will be done elsewhere.
 Leave Link  702 at Thu Mar 19 17:27:58 2026, MaxMem=   536870912 cpu:         1.0
 (Enter C:\G09W\l703.exe)
 Compute integral first derivatives, UseDBF=F ICtDFT=           0.
 Integral derivatives from FoFJK, PRISM(SPDF).
 Calling FoFJK, ICntrl=      2127 FMM=F ISym2X=0 I1Cent= 0 IOpClX= 0 NMat=1 NMatS=1 NMatT=0.
 FoFJK:  IHMeth= 1 ICntrl=    2127 DoSepK=F KAlg= 0 I1Cent=   0 FoldK=F
 IRaf=         0 NMat=   1 IRICut=       1 DoRegI=T DoRafI=F ISym2E= 0.
 FoFCou: FMM=F IPFlag=           0 FMFlag=      100000 FMFlg1=         800
         NFxFlg=           0 DoJE=F BraDBF=F KetDBF=F FulRan=T
         wScrn=  0.000000 ICntrl=    2127 IOpCl=  0 I1Cent=           0 NGrid=           0
         NMat0=    1 NMatS0=      1 NMatT0=    0 NMatD0=    1 NMtDS0=    0 NMtDT0=    0
 Symmetry not used in FoFCou.
 Leave Link  703 at Thu Mar 19 17:28:01 2026, MaxMem=   536870912 cpu:         3.0
 (Enter C:\G09W\l716.exe)
 Dipole        =-6.89885793D-01-4.06117954D-02-7.14734973D-01
 ***** Axes restored to original set *****
 -------------------------------------------------------------------
 Center     Atomic                   Forces (Hartrees/Bohr)
 Number     Number              X              Y              Z
 -------------------------------------------------------------------
      1        8          -0.012141267   -0.040412765    0.022515610
      2        6           0.032354627   -0.052897908   -0.022613248
      3        6          -0.142811682   -0.036176114   -0.024928414
      4        6           0.008669867   -0.003896692    0.058065491
      5        6           0.001078825    0.007268182   -0.038556344
      6        6           0.043980586    0.048971142   -0.002811072
      7        6           0.027013734    0.015755869    0.007596859
      8        1           0.046758506    0.023035547    0.005642044
      9        1           0.055336561    0.006868544    0.002453044
     10        1           0.016156192   -0.003333800   -0.003448419
     11        1          -0.004240014    0.027937896   -0.010124178
     12        1          -0.012114392    0.020700395    0.012253973
     13        1          -0.060041544   -0.013820294   -0.006045346
 -------------------------------------------------------------------
 Cartesian Forces:  Max     0.142811682 RMS     0.036146066
 Leave Link  716 at Thu Mar 19 17:28:01 2026, MaxMem=   536870912 cpu:         0.0
 (Enter C:\G09W\l103.exe)

 GradGradGradGradGradGradGradGradGradGradGradGradGradGradGradGradGradGrad
 Berny optimization.
 Using GEDIIS/GDIIS optimizer.
 Bend failed for angle     9 -     4 -    11
 Tors failed for dihedral    11 -     4 -     9 -     3
 Tors failed for dihedral    11 -     4 -     9 -     5
 Tors failed for dihedral     9 -     4 -    11 -     2
 Tors failed for dihedral     9 -     4 -    11 -     6
 FormBX had a problem.
 Error termination via Lnk1e in C:\G09W\l103.exe at Thu Mar 19 17:28:02 2026.
 Job cpu time:       0 days  0 hours 10 minutes 19.0 seconds.
 File lengths (MBytes):  RWF=      9 Int=      0 D2E=      0 Chk=      2 Scr=      1
