 Entering Gaussian System, Link 0=C:\G09W\g09.exe
 Input=phenol_rdkit.com
 Output=C:\workspace\delta_chem\benchmark_results\phenol\phenol_rdkit.out
 Initial command:
 C:\G09W\l1.exe ".\Gau-11280.inp" "C:\workspace\delta_chem\benchmark_results\phenol\phenol_rdkit.out" /scrdir=".\"
 Entering Link 1 = C:\G09W\l1.exe PID=     13824.
  
 Copyright (c) 1988,1990,1992,1993,1995,1998,2003,2009,2013,
            Gaussian, Inc.  All Rights Reserved.
  
 This is part of the Gaussian(R) 09 program.  It is based on
 the Gaussian(R) 03 system (copyright 2003, Gaussian, Inc.),
 the Gaussian(R) 98 system (copyright 1998, Gaussian, Inc.),
 the Gaussian(R) 94 system (copyright 1995, Gaussian, Inc.),
 the Gaussian 92(TM) system (copyright 1992, Gaussian, Inc.),
 the Gaussian 90(TM) system (copyright 1990, Gaussian, Inc.),
 the Gaussian 88(TM) system (copyright 1988, Gaussian, Inc.),
 the Gaussian 86(TM) system (copyright 1986, Carnegie Mellon
 University), and the Gaussian 82(TM) system (copyright 1983,
 Carnegie Mellon University). Gaussian is a federally registered
 trademark of Gaussian, Inc.
  
 This software contains proprietary and confidential information,
 including trade secrets, belonging to Gaussian, Inc.
  
 This software is provided under written license and may be
 used, copied, transmitted, or stored only in accord with that
 written license.
  
 The following legend is applicable only to US Government
 contracts under FAR:
  
                    RESTRICTED RIGHTS LEGEND
  
 Use, reproduction and disclosure by the US Government is
 subject to restrictions as set forth in subparagraphs (a)
 and (c) of the Commercial Computer Software - Restricted
 Rights clause in FAR 52.227-19.
  
 Gaussian, Inc.
 340 Quinnipiac St., Bldg. 40, Wallingford CT 06492
  
  
 ---------------------------------------------------------------
 Warning -- This program may not be used in any manner that
 competes with the business of Gaussian, Inc. or will provide
 assistance to any competitor of Gaussian, Inc.  The licensee
 of this program is prohibited from giving any competitor of
 Gaussian, Inc. access to this program.  By using this program,
 the user acknowledges that Gaussian, Inc. is engaged in the
 business of creating and licensing software in the field of
 computational chemistry and represents and warrants to the
 licensee that it is not a competitor of Gaussian, Inc. and that
 it will not use this program in any manner prohibited above.
 ---------------------------------------------------------------
  

 Cite this work as:
 Gaussian 09, Revision D.01,
 M. J. Frisch, G. W. Trucks, H. B. Schlegel, G. E. Scuseria, 
 M. A. Robb, J. R. Cheeseman, G. Scalmani, V. Barone, B. Mennucci, 
 G. A. Petersson, H. Nakatsuji, M. Caricato, X. Li, H. P. Hratchian, 
 A. F. Izmaylov, J. Bloino, G. Zheng, J. L. Sonnenberg, M. Hada, 
 M. Ehara, K. Toyota, R. Fukuda, J. Hasegawa, M. Ishida, T. Nakajima, 
 Y. Honda, O. Kitao, H. Nakai, T. Vreven, J. A. Montgomery, Jr., 
 J. E. Peralta, F. Ogliaro, M. Bearpark, J. J. Heyd, E. Brothers, 
 K. N. Kudin, V. N. Staroverov, T. Keith, R. Kobayashi, J. Normand, 
 K. Raghavachari, A. Rendell, J. C. Burant, S. S. Iyengar, J. Tomasi, 
 M. Cossi, N. Rega, J. M. Millam, M. Klene, J. E. Knox, J. B. Cross, 
 V. Bakken, C. Adamo, J. Jaramillo, R. Gomperts, R. E. Stratmann, 
 O. Yazyev, A. J. Austin, R. Cammi, C. Pomelli, J. W. Ochterski, 
 R. L. Martin, K. Morokuma, V. G. Zakrzewski, G. A. Voth, 
 P. Salvador, J. J. Dannenberg, S. Dapprich, A. D. Daniels, 
 O. Farkas, J. B. Foresman, J. V. Ortiz, J. Cioslowski, 
 and D. J. Fox, Gaussian, Inc., Wallingford CT, 2013.
 
 ******************************************
 Gaussian 09:  EM64W-G09RevD.01 13-Apr-2013
                19-Mar-2026 
 ******************************************
 %NProcShared=4
 Will use up to    4 processors via shared memory.
 %Mem=4GB
 %Chk=phenol_rdkit.chk
 ---------------------
 #p opt B3LYP/6-31G(d)
 ---------------------
 1/14=-1,18=20,19=15,26=3,38=1/1,3;
 2/9=110,12=2,17=6,18=5,40=1/2;
 3/5=1,6=6,7=1,11=2,16=1,25=1,30=1,71=1,74=-5/1,2,3;
 4//1;
 5/5=2,38=5/2;
 6/7=2,8=2,9=2,10=2,28=1/1;
 7//1,2,3,16;
 1/14=-1,18=20,19=15,26=3/3(2);
 2/9=110/2;
 99//99;
 2/9=110/2;
 3/5=1,6=6,7=1,11=2,16=1,25=1,30=1,71=1,74=-5/1,2,3;
 4/5=5,16=3,69=1/1;
 5/5=2,38=5/2;
 7//1,2,3,16;
 1/14=-1,18=20,19=15,26=3/3(-5);
 2/9=110/2;
 6/7=2,8=2,9=2,10=2,19=2,28=1/1;
 99/9=1/99;
 Leave Link    1 at Thu Mar 19 17:16:41 2026, MaxMem=   536870912 cpu:         0.0
 (Enter C:\G09W\l101.exe)
 --------------
 phenol [rdkit]
 --------------
 Symbolic Z-matrix:
 Charge =  0 Multiplicity = 1
 O                     2.47796   0.21075  -0.19299 
 C                     1.12124   0.10926  -0.09932 
 C                     0.51236  -1.04614   0.38259 
 C                    -0.88017  -1.10507   0.46081 
 C                    -1.65092  -0.01296   0.05834 
 C                    -1.03042   1.14037  -0.4232 
 C                     0.36071   1.20129  -0.50216 
 H                     2.87087  -0.61988   0.12073 
 H                     1.09894  -1.90246   0.69886 
 H                    -1.36626  -2.00214   0.83549 
 H                    -2.73515  -0.06035   0.11983 
 H                    -1.62898   1.99132  -0.73688 
 H                     0.84981   2.09603  -0.87604 
 
 NAtoms=     13 NQM=       13 NQMF=       0 NMMI=      0 NMMIF=      0
                NMic=       0 NMicF=      0.
                    Isotopes and Nuclear Properties:
 (Nuclear quadrupole moments (NQMom) in fm**2, nuclear magnetic moments (NMagM)
  in nuclear magnetons)

  Atom         1           2           3           4           5           6           7           8           9          10
 IAtWgt=          16          12          12          12          12          12          12           1           1           1
 AtmWgt=  15.9949146  12.0000000  12.0000000  12.0000000  12.0000000  12.0000000  12.0000000   1.0078250   1.0078250   1.0078250
 NucSpn=           0           0           0           0           0           0           0           1           1           1
 AtZEff=   0.0000000   0.0000000   0.0000000   0.0000000   0.0000000   0.0000000   0.0000000   0.0000000   0.0000000   0.0000000
 NQMom=    0.0000000   0.0000000   0.0000000   0.0000000   0.0000000   0.0000000   0.0000000   0.0000000   0.0000000   0.0000000
 NMagM=    0.0000000   0.0000000   0.0000000   0.0000000   0.0000000   0.0000000   0.0000000   2.7928460   2.7928460   2.7928460
 AtZNuc=   8.0000000   6.0000000   6.0000000   6.0000000   6.0000000   6.0000000   6.0000000   1.0000000   1.0000000   1.0000000

  Atom        11          12          13
 IAtWgt=           1           1           1
 AtmWgt=   1.0078250   1.0078250   1.0078250
 NucSpn=           1           1           1
 AtZEff=   0.0000000   0.0000000   0.0000000
 NQMom=    0.0000000   0.0000000   0.0000000
 NMagM=    2.7928460   2.7928460   2.7928460
 AtZNuc=   1.0000000   1.0000000   1.0000000
 Leave Link  101 at Thu Mar 19 17:16:41 2026, MaxMem=   536870912 cpu:         0.0
 (Enter C:\G09W\l103.exe)

 GradGradGradGradGradGradGradGradGradGradGradGradGradGradGradGradGradGrad
 Berny optimization.
 Initialization pass.
                           ----------------------------
                           !    Initial Parameters    !
                           ! (Angstroms and Degrees)  !
 --------------------------                            --------------------------
 ! Name  Definition              Value          Derivative Info.                !
 --------------------------------------------------------------------------------
 ! R1    R(1,2)                  1.3637         estimate D2E/DX2                !
 ! R2    R(1,8)                  0.9709         estimate D2E/DX2                !
 ! R3    R(2,3)                  1.3921         estimate D2E/DX2                !
 ! R4    R(2,7)                  1.3904         estimate D2E/DX2                !
 ! R5    R(3,4)                  1.396          estimate D2E/DX2                !
 ! R6    R(3,9)                  1.0851         estimate D2E/DX2                !
 ! R7    R(4,5)                  1.396          estimate D2E/DX2                !
 ! R8    R(4,10)                 1.0869         estimate D2E/DX2                !
 ! R9    R(5,6)                  1.3954         estimate D2E/DX2                !
 ! R10   R(5,11)                 1.087          estimate D2E/DX2                !
 ! R11   R(6,7)                  1.3947         estimate D2E/DX2                !
 ! R12   R(6,12)                 1.0866         estimate D2E/DX2                !
 ! R13   R(7,13)                 1.0861         estimate D2E/DX2                !
 ! A1    A(2,1,8)              108.4649         estimate D2E/DX2                !
 ! A2    A(1,2,3)              121.378          estimate D2E/DX2                !
 ! A3    A(1,2,7)              117.7636         estimate D2E/DX2                !
 ! A4    A(3,2,7)              120.8583         estimate D2E/DX2                !
 ! A5    A(2,3,4)              119.3894         estimate D2E/DX2                !
 ! A6    A(2,3,9)              121.2954         estimate D2E/DX2                !
 ! A7    A(4,3,9)              119.3152         estimate D2E/DX2                !
 ! A8    A(3,4,5)              120.1045         estimate D2E/DX2                !
 ! A9    A(3,4,10)             120.0178         estimate D2E/DX2                !
 ! A10   A(5,4,10)             119.8777         estimate D2E/DX2                !
 ! A11   A(4,5,6)              120.0398         estimate D2E/DX2                !
 ! A12   A(4,5,11)             120.0191         estimate D2E/DX2                !
 ! A13   A(6,5,11)             119.9411         estimate D2E/DX2                !
 ! A14   A(5,6,7)              119.9464         estimate D2E/DX2                !
 ! A15   A(5,6,12)             120.128          estimate D2E/DX2                !
 ! A16   A(7,6,12)             119.9256         estimate D2E/DX2                !
 ! A17   A(2,7,6)              119.6616         estimate D2E/DX2                !
 ! A18   A(2,7,13)             120.0295         estimate D2E/DX2                !
 ! A19   A(6,7,13)             120.3089         estimate D2E/DX2                !
 ! D1    D(8,1,2,3)             -0.0001         estimate D2E/DX2                !
 ! D2    D(8,1,2,7)            179.9999         estimate D2E/DX2                !
 ! D3    D(1,2,3,4)           -179.9999         estimate D2E/DX2                !
 ! D4    D(1,2,3,9)              0.0            estimate D2E/DX2                !
 ! D5    D(7,2,3,4)              0.0001         estimate D2E/DX2                !
 ! D6    D(7,2,3,9)            180.0            estimate D2E/DX2                !
 ! D7    D(1,2,7,6)           -180.0            estimate D2E/DX2                !
 ! D8    D(1,2,7,13)             0.0            estimate D2E/DX2                !
 ! D9    D(3,2,7,6)              0.0            estimate D2E/DX2                !
 ! D10   D(3,2,7,13)           180.0            estimate D2E/DX2                !
 ! D11   D(2,3,4,5)             -0.0002         estimate D2E/DX2                !
 ! D12   D(2,3,4,10)           180.0            estimate D2E/DX2                !
 ! D13   D(9,3,4,5)            180.0            estimate D2E/DX2                !
 ! D14   D(9,3,4,10)             0.0001         estimate D2E/DX2                !
 ! D15   D(3,4,5,6)              0.0001         estimate D2E/DX2                !
 ! D16   D(3,4,5,11)          -180.0            estimate D2E/DX2                !
 ! D17   D(10,4,5,6)           180.0            estimate D2E/DX2                !
 ! D18   D(10,4,5,11)           -0.0001         estimate D2E/DX2                !
 ! D19   D(4,5,6,7)              0.0001         estimate D2E/DX2                !
 ! D20   D(4,5,6,12)           179.9998         estimate D2E/DX2                !
 ! D21   D(11,5,6,7)          -179.9999         estimate D2E/DX2                !
 ! D22   D(11,5,6,12)           -0.0001         estimate D2E/DX2                !
 ! D23   D(5,6,7,2)             -0.0001         estimate D2E/DX2                !
 ! D24   D(5,6,7,13)           179.9999         estimate D2E/DX2                !
 ! D25   D(12,6,7,2)          -179.9999         estimate D2E/DX2                !
 ! D26   D(12,6,7,13)            0.0001         estimate D2E/DX2                !
 --------------------------------------------------------------------------------
 Trust Radius=3.00D-01 FncErr=1.00D-07 GrdErr=1.00D-06
 Number of steps in this run=     68 maximum allowed number of steps=    100.
 GradGradGradGradGradGradGradGradGradGradGradGradGradGradGradGradGradGrad

 Leave Link  103 at Thu Mar 19 17:16:42 2026, MaxMem=   536870912 cpu:         0.0
 (Enter C:\G09W\l202.exe)
                          Input orientation:                          
 ---------------------------------------------------------------------
 Center     Atomic      Atomic             Coordinates (Angstroms)
 Number     Number       Type             X           Y           Z
 ---------------------------------------------------------------------
      1          8           0        2.477959    0.210745   -0.192989
      2          6           0        1.121244    0.109257   -0.099316
      3          6           0        0.512362   -1.046142    0.382590
      4          6           0       -0.880173   -1.105073    0.460805
      5          6           0       -1.650915   -0.012961    0.058336
      6          6           0       -1.030415    1.140365   -0.423204
      7          6           0        0.360706    1.201292   -0.502158
      8          1           0        2.870865   -0.619881    0.120734
      9          1           0        1.098942   -1.902456    0.698862
     10          1           0       -1.366258   -2.002135    0.835486
     11          1           0       -2.735149   -0.060354    0.119833
     12          1           0       -1.628975    1.991315   -0.736880
     13          1           0        0.849807    2.096029   -0.876037
 ---------------------------------------------------------------------
                    Distance matrix (angstroms):
                    1          2          3          4          5
     1  O    0.000000
     2  C    1.363727   0.000000
     3  C    2.403046   1.392091   0.000000
     4  C    3.665498   2.407074   1.395974   0.000000
     5  C    4.142561   2.779327   2.419167   1.395970   0.000000
     6  C    3.636740   2.407846   2.794687   2.417858   1.395372
     7  C    2.357865   1.390410   2.420070   2.790412   2.415612
     8  H    0.970946   1.908203   2.410976   3.797545   4.562756
     9  H    2.676323   2.164388   1.085070   2.146948   3.397378
    10  H    4.553307   3.394038   2.155980   1.086915   2.154485
    11  H    5.229517   3.866337   3.403990   2.156069   1.087010
    12  H    4.509230   3.392983   3.881325   3.403347   2.156379
    13  H    2.582969   2.150404   3.401654   3.876472   3.402132
                    6          7          8          9         10
     6  C    0.000000
     7  C    1.394691   0.000000
     8  H    4.314432   3.163157   0.000000
     9  H    3.879685   3.408914   2.262508   0.000000
    10  H    3.401823   3.877324   4.513835   2.470994   0.000000
    11  H    2.154700   3.400433   5.633868   4.292886   2.481237
    12  H    1.086638   2.153616   5.272799   4.966320   4.299883
    13  H    2.157217   1.086075   3.529078   4.304679   4.963386
                   11         12         13
    11  H    0.000000
    12  H    2.483329   0.000000
    13  H    4.300425   2.484892   0.000000
 Stoichiometry    C6H6O
 Framework group  C1[X(C6H6O)]
 Deg. of freedom    33
 Full point group                 C1      NOp   1
 Largest Abelian subgroup         C1      NOp   1
 Largest concise Abelian subgroup C1      NOp   1
                         Standard orientation:                         
 ---------------------------------------------------------------------
 Center     Atomic      Atomic             Coordinates (Angstroms)
 Number     Number       Type             X           Y           Z
 ---------------------------------------------------------------------
      1          8           0        2.294694   -0.119165    0.000000
      2          6           0        0.933465   -0.036659    0.000000
      3          6           0        0.281861    1.193515   -0.000001
      4          6           0       -1.113648    1.229567    0.000001
      5          6           0       -1.844793    0.040383    0.000000
      6          6           0       -1.181640   -1.187334   -0.000001
      7          6           0        0.212527   -1.225561    0.000000
      8          1           0        2.657371    0.781502   -0.000001
      9          1           0        0.837383    2.125595   -0.000001
     10          1           0       -1.632911    2.184424    0.000001
     11          1           0       -2.931398    0.070076    0.000001
     12          1           0       -1.749346   -2.113883    0.000001
     13          1           0        0.734723   -2.177859    0.000001
 ---------------------------------------------------------------------
 Rotational constants (GHZ):      5.6370358      2.6397252      1.7978319
 Leave Link  202 at Thu Mar 19 17:16:43 2026, MaxMem=   536870912 cpu:         0.0
 (Enter C:\G09W\l301.exe)
 Standard basis: 6-31G(d) (6D, 7F)
 Ernie: Thresh=  0.10000D-02 Tol=  0.10000D-05 Strict=F.
 There are   117 symmetry adapted cartesian basis functions of A   symmetry.
 There are   117 symmetry adapted basis functions of A   symmetry.
   117 basis functions,   220 primitive gaussians,   117 cartesian basis functions
    25 alpha electrons       25 beta electrons
       nuclear repulsion energy       271.3863673075 Hartrees.
 IExCor=  402 DFT=T Ex+Corr=B3LYP ExCW=0 ScaHFX=  0.200000
 ScaDFX=  0.800000  0.720000  1.000000  0.810000 ScalE2=  1.000000  1.000000
 IRadAn=      0 IRanWt=     -1 IRanGd=            0 ICorTp=0 IEmpDi=  4
 NAtoms=   13 NActive=   13 NUniq=   13 SFac= 1.00D+00 NAtFMM=   60 NAOKFM=F Big=F
 Integral buffers will be    131072 words long.
 Raffenetti 2 integral format.
 Two-electron integral symmetry is turned on.
 Leave Link  301 at Thu Mar 19 17:16:43 2026, MaxMem=   536870912 cpu:         0.0
 (Enter C:\G09W\l302.exe)
 NPDir=0 NMtPBC=     1 NCelOv=     1 NCel=       1 NClECP=     1 NCelD=      1
         NCelK=      1 NCelE2=     1 NClLst=     1 CellRange=     0.0.
 One-electron integrals computed using PRISM.
 NBasis=   117 RedAO= T EigKep=  4.79D-04  NBF=   117
 NBsUse=   117 1.00D-06 EigRej= -1.00D+00 NBFU=   117
 Precomputing XC quadrature grid using
 IXCGrd= 4 IRadAn=           0 IRanWt=          -1 IRanGd=           0 AccXCQ= 0.00D+00.
 Generated NRdTot=       0 NPtTot=           0 NUsed=           0 NTot=          32
 NSgBfM=   117   117   117   117   117 MxSgAt=    13 MxSgA2=    13.
 Leave Link  302 at Thu Mar 19 17:16:43 2026, MaxMem=   536870912 cpu:         0.0
 (Enter C:\G09W\l303.exe)
 DipDrv:  MaxL=1.
 Leave Link  303 at Thu Mar 19 17:16:44 2026, MaxMem=   536870912 cpu:         0.0
 (Enter C:\G09W\l401.exe)
 ExpMin= 1.61D-01 ExpMax= 5.48D+03 ExpMxC= 8.25D+02 IAcc=1 IRadAn=         1 AccDes= 0.00D+00
 Harris functional with IExCor=  402 and IRadAn=       1 diagonalized for initial guess.
 HarFok:  IExCor=  402 AccDes= 0.00D+00 IRadAn=         1 IDoV= 1 UseB2=F ITyADJ=14
 ICtDFT=  3500011 ScaDFX=  1.000000  1.000000  1.000000  1.000000
 FoFCou: FMM=F IPFlag=           0 FMFlag=      100000 FMFlg1=           0
         NFxFlg=           0 DoJE=T BraDBF=F KetDBF=T FulRan=T
         wScrn=  0.000000 ICntrl=     500 IOpCl=  0 I1Cent=   200000004 NGrid=           0
         NMat0=    1 NMatS0=      1 NMatT0=    0 NMatD0=    1 NMtDS0=    0 NMtDT0=    0
 Petite list used in FoFCou.
 Harris En= -307.497785116981    
 JPrj=0 DoOrth=F DoCkMO=F.
 Leave Link  401 at Thu Mar 19 17:16:44 2026, MaxMem=   536870912 cpu:         0.0
 (Enter C:\G09W\l502.exe)
 Closed shell SCF:
 Using DIIS extrapolation, IDIIS=  1040.
 Integral symmetry usage will be decided dynamically.
 Keep R1 ints in memory in canonical form, NReq=24830210.
 IVT=       61204 IEndB=       61204 NGot=   536870912 MDV=   512980553
 LenX=   512980553 LenY=   512966423
 Requested convergence on RMS density matrix=1.00D-08 within 128 cycles.
 Requested convergence on MAX density matrix=1.00D-06.
 Requested convergence on             energy=1.00D-06.
 No special actions if energy rises.
 FoFCou: FMM=F IPFlag=           0 FMFlag=           0 FMFlg1=           0
         NFxFlg=           0 DoJE=F BraDBF=F KetDBF=F FulRan=T
         wScrn=  0.000000 ICntrl=     600 IOpCl=  0 I1Cent=           0 NGrid=           0
         NMat0=    1 NMatS0=   6903 NMatT0=    0 NMatD0=    1 NMtDS0=    0 NMtDT0=    0
 Symmetry not used in FoFCou.
 Integral accuracy reduced to 1.0D-05 until final iterations.

 Cycle   1  Pass 0  IDiag  1:
 E= -307.284353371074    
 DIIS: error= 4.90D-02 at cycle   1 NSaved=   1.
 NSaved= 1 IEnMin= 1 EnMin= -307.284353371074     IErMin= 1 ErrMin= 4.90D-02
 ErrMax= 4.90D-02  0.00D+00 EMaxC= 1.00D-01 BMatC= 1.74D-01 BMatP= 1.74D-01
 IDIUse=3 WtCom= 5.10D-01 WtEn= 4.90D-01
 Coeff-Com:  0.100D+01
 Coeff-En:   0.100D+01
 Coeff:      0.100D+01
 Gap=     0.231 Goal=   None    Shift=    0.000
 GapD=    0.231 DampG=1.000 DampE=0.500 DampFc=0.5000 IDamp=-1.
 Damping current iteration by 5.00D-01
 RMSDP=7.86D-03 MaxDP=1.26D-01              OVMax= 1.62D-01

 Cycle   2  Pass 0  IDiag  1:
 E= -307.368207560922     Delta-E=       -0.083854189848 Rises=F Damp=T
 DIIS: error= 8.01D-03 at cycle   2 NSaved=   2.
 NSaved= 2 IEnMin= 2 EnMin= -307.368207560922     IErMin= 2 ErrMin= 8.01D-03
 ErrMax= 8.01D-03  0.00D+00 EMaxC= 1.00D-01 BMatC= 8.19D-03 BMatP= 1.74D-01
 IDIUse=3 WtCom= 9.20D-01 WtEn= 8.01D-02
 Coeff-Com:  0.326D-01 0.967D+00
 Coeff-En:   0.494D-01 0.951D+00
 Coeff:      0.340D-01 0.966D+00
 Gap=     0.289 Goal=   None    Shift=    0.000
 RMSDP=1.66D-03 MaxDP=2.74D-02 DE=-8.39D-02 OVMax= 1.08D-01

 Cycle   3  Pass 0  IDiag  1:
 E= -307.460405340151     Delta-E=       -0.092197779229 Rises=F Damp=F
 DIIS: error= 7.11D-03 at cycle   3 NSaved=   3.
 NSaved= 3 IEnMin= 3 EnMin= -307.460405340151     IErMin= 3 ErrMin= 7.11D-03
 ErrMax= 7.11D-03  0.00D+00 EMaxC= 1.00D-01 BMatC= 3.83D-03 BMatP= 8.19D-03
 IDIUse=3 WtCom= 9.29D-01 WtEn= 7.11D-02
 Coeff-Com: -0.213D-01 0.382D+00 0.640D+00
 Coeff-En:   0.000D+00 0.000D+00 0.100D+01
 Coeff:     -0.198D-01 0.354D+00 0.665D+00
 Gap=     0.221 Goal=   None    Shift=    0.000
 RMSDP=9.22D-04 MaxDP=2.11D-02 DE=-9.22D-02 OVMax= 4.52D-02

 Cycle   4  Pass 0  IDiag  1:
 E= -307.461820714605     Delta-E=       -0.001415374454 Rises=F Damp=F
 DIIS: error= 6.17D-03 at cycle   4 NSaved=   4.
 NSaved= 4 IEnMin= 4 EnMin= -307.461820714605     IErMin= 4 ErrMin= 6.17D-03
 ErrMax= 6.17D-03  0.00D+00 EMaxC= 1.00D-01 BMatC= 2.34D-03 BMatP= 3.83D-03
 IDIUse=3 WtCom= 9.38D-01 WtEn= 6.17D-02
 Coeff-Com: -0.159D-01 0.928D-01 0.445D+00 0.478D+00
 Coeff-En:   0.000D+00 0.000D+00 0.414D+00 0.586D+00
 Coeff:     -0.149D-01 0.871D-01 0.444D+00 0.484D+00
 Gap=     0.219 Goal=   None    Shift=    0.000
 RMSDP=4.87D-04 MaxDP=8.37D-03 DE=-1.42D-03 OVMax= 2.41D-02

 Cycle   5  Pass 0  IDiag  1:
 E= -307.464439085858     Delta-E=       -0.002618371253 Rises=F Damp=F
 DIIS: error= 6.01D-04 at cycle   5 NSaved=   5.
 NSaved= 5 IEnMin= 5 EnMin= -307.464439085858     IErMin= 5 ErrMin= 6.01D-04
 ErrMax= 6.01D-04  0.00D+00 EMaxC= 1.00D-01 BMatC= 3.97D-05 BMatP= 2.34D-03
 IDIUse=3 WtCom= 9.94D-01 WtEn= 6.01D-03
 Coeff-Com: -0.407D-02 0.125D-01 0.137D+00 0.199D+00 0.656D+00
 Coeff-En:   0.000D+00 0.000D+00 0.000D+00 0.000D+00 0.100D+01
 Coeff:     -0.405D-02 0.124D-01 0.136D+00 0.198D+00 0.658D+00
 Gap=     0.219 Goal=   None    Shift=    0.000
 RMSDP=7.04D-05 MaxDP=1.26D-03 DE=-2.62D-03 OVMax= 3.33D-03

 Cycle   6  Pass 0  IDiag  1:
 E= -307.464473623075     Delta-E=       -0.000034537217 Rises=F Damp=F
 DIIS: error= 2.62D-04 at cycle   6 NSaved=   6.
 NSaved= 6 IEnMin= 6 EnMin= -307.464473623075     IErMin= 6 ErrMin= 2.62D-04
 ErrMax= 2.62D-04  0.00D+00 EMaxC= 1.00D-01 BMatC= 7.92D-06 BMatP= 3.97D-05
 IDIUse=3 WtCom= 9.97D-01 WtEn= 2.62D-03
 Coeff-Com: -0.162D-02 0.247D-02 0.548D-01 0.879D-01 0.391D+00 0.466D+00
 Coeff-En:   0.000D+00 0.000D+00 0.000D+00 0.000D+00 0.920D-01 0.908D+00
 Coeff:     -0.161D-02 0.247D-02 0.546D-01 0.877D-01 0.390D+00 0.467D+00
 Gap=     0.219 Goal=   None    Shift=    0.000
 RMSDP=2.32D-05 MaxDP=4.60D-04 DE=-3.45D-05 OVMax= 6.54D-04

 Cycle   7  Pass 0  IDiag  1:
 E= -307.464480458788     Delta-E=       -0.000006835712 Rises=F Damp=F
 DIIS: error= 3.85D-05 at cycle   7 NSaved=   7.
 NSaved= 7 IEnMin= 7 EnMin= -307.464480458788     IErMin= 7 ErrMin= 3.85D-05
 ErrMax= 3.85D-05  0.00D+00 EMaxC= 1.00D-01 BMatC= 9.81D-08 BMatP= 7.92D-06
 IDIUse=1 WtCom= 1.00D+00 WtEn= 0.00D+00
 Coeff-Com: -0.375D-03 0.194D-03 0.146D-01 0.241D-01 0.120D+00 0.172D+00
 Coeff-Com:  0.669D+00
 Coeff:     -0.375D-03 0.194D-03 0.146D-01 0.241D-01 0.120D+00 0.172D+00
 Coeff:      0.669D+00
 Gap=     0.219 Goal=   None    Shift=    0.000
 RMSDP=3.70D-06 MaxDP=8.40D-05 DE=-6.84D-06 OVMax= 1.64D-04

 Initial convergence to 1.0D-05 achieved.  Increase integral accuracy.
 Cycle   8  Pass 1  IDiag  1:
 E= -307.464438089830     Delta-E=        0.000042368957 Rises=F Damp=F
 DIIS: error= 4.06D-05 at cycle   1 NSaved=   1.
 NSaved= 1 IEnMin= 1 EnMin= -307.464438089830     IErMin= 1 ErrMin= 4.06D-05
 ErrMax= 4.06D-05  0.00D+00 EMaxC= 1.00D-01 BMatC= 8.51D-08 BMatP= 8.51D-08
 IDIUse=1 WtCom= 1.00D+00 WtEn= 0.00D+00
 Coeff-Com:  0.100D+01
 Coeff:      0.100D+01
 Gap=     0.219 Goal=   None    Shift=    0.000
 RMSDP=3.70D-06 MaxDP=8.40D-05 DE= 4.24D-05 OVMax= 2.54D-04

 Cycle   9  Pass 1  IDiag  1:
 E= -307.464438085960     Delta-E=        0.000000003870 Rises=F Damp=F
 DIIS: error= 3.34D-05 at cycle   2 NSaved=   2.
 NSaved= 2 IEnMin= 1 EnMin= -307.464438089830     IErMin= 2 ErrMin= 3.34D-05
 ErrMax= 3.34D-05  0.00D+00 EMaxC= 1.00D-01 BMatC= 1.10D-07 BMatP= 8.51D-08
 IDIUse=1 WtCom= 1.00D+00 WtEn= 0.00D+00
 Coeff-Com:  0.540D+00 0.460D+00
 Coeff:      0.540D+00 0.460D+00
 Gap=     0.219 Goal=   None    Shift=    0.000
 RMSDP=3.58D-06 MaxDP=7.02D-05 DE= 3.87D-09 OVMax= 1.94D-04

 Cycle  10  Pass 1  IDiag  1:
 E= -307.464438184414     Delta-E=       -0.000000098454 Rises=F Damp=F
 DIIS: error= 8.68D-06 at cycle   3 NSaved=   3.
 NSaved= 3 IEnMin= 3 EnMin= -307.464438184414     IErMin= 3 ErrMin= 8.68D-06
 ErrMax= 8.68D-06  0.00D+00 EMaxC= 1.00D-01 BMatC= 9.48D-09 BMatP= 8.51D-08
 IDIUse=1 WtCom= 1.00D+00 WtEn= 0.00D+00
 Coeff-Com:  0.169D-01 0.223D+00 0.761D+00
 Coeff:      0.169D-01 0.223D+00 0.761D+00
 Gap=     0.219 Goal=   None    Shift=    0.000
 RMSDP=1.09D-06 MaxDP=1.87D-05 DE=-9.85D-08 OVMax= 5.53D-05

 Cycle  11  Pass 1  IDiag  1:
 E= -307.464438192235     Delta-E=       -0.000000007821 Rises=F Damp=F
 DIIS: error= 3.32D-06 at cycle   4 NSaved=   4.
 NSaved= 4 IEnMin= 4 EnMin= -307.464438192235     IErMin= 4 ErrMin= 3.32D-06
 ErrMax= 3.32D-06  0.00D+00 EMaxC= 1.00D-01 BMatC= 1.69D-09 BMatP= 9.48D-09
 IDIUse=1 WtCom= 1.00D+00 WtEn= 0.00D+00
 Coeff-Com: -0.139D-01 0.117D+00 0.469D+00 0.428D+00
 Coeff:     -0.139D-01 0.117D+00 0.469D+00 0.428D+00
 Gap=     0.219 Goal=   None    Shift=    0.000
 RMSDP=3.64D-07 MaxDP=1.11D-05 DE=-7.82D-09 OVMax= 1.95D-05

 Cycle  12  Pass 1  IDiag  1:
 E= -307.464438194005     Delta-E=       -0.000000001770 Rises=F Damp=F
 DIIS: error= 3.72D-07 at cycle   5 NSaved=   5.
 NSaved= 5 IEnMin= 5 EnMin= -307.464438194005     IErMin= 5 ErrMin= 3.72D-07
 ErrMax= 3.72D-07  0.00D+00 EMaxC= 1.00D-01 BMatC= 2.14D-11 BMatP= 1.69D-09
 IDIUse=1 WtCom= 1.00D+00 WtEn= 0.00D+00
 Coeff-Com: -0.579D-02 0.404D-01 0.162D+00 0.178D+00 0.626D+00
 Coeff:     -0.579D-02 0.404D-01 0.162D+00 0.178D+00 0.626D+00
 Gap=     0.219 Goal=   None    Shift=    0.000
 RMSDP=5.40D-08 MaxDP=8.80D-07 DE=-1.77D-09 OVMax= 2.13D-06

 Cycle  13  Pass 1  IDiag  1:
 E= -307.464438194006     Delta-E=       -0.000000000001 Rises=F Damp=F
 DIIS: error= 1.90D-07 at cycle   6 NSaved=   6.
 NSaved= 6 IEnMin= 6 EnMin= -307.464438194006     IErMin= 6 ErrMin= 1.90D-07
 ErrMax= 1.90D-07  0.00D+00 EMaxC= 1.00D-01 BMatC= 5.22D-12 BMatP= 2.14D-11
 IDIUse=1 WtCom= 1.00D+00 WtEn= 0.00D+00
 Coeff-Com: -0.228D-02 0.132D-01 0.532D-01 0.653D-01 0.368D+00 0.503D+00
 Coeff:     -0.228D-02 0.132D-01 0.532D-01 0.653D-01 0.368D+00 0.503D+00
 Gap=     0.219 Goal=   None    Shift=    0.000
 RMSDP=1.73D-08 MaxDP=4.56D-07 DE=-7.96D-13 OVMax= 5.50D-07

 Cycle  14  Pass 1  IDiag  1:
 E= -307.464438194009     Delta-E=       -0.000000000002 Rises=F Damp=F
 DIIS: error= 2.53D-08 at cycle   7 NSaved=   7.
 NSaved= 7 IEnMin= 7 EnMin= -307.464438194009     IErMin= 7 ErrMin= 2.53D-08
 ErrMax= 2.53D-08  0.00D+00 EMaxC= 1.00D-01 BMatC= 9.88D-14 BMatP= 5.22D-12
 IDIUse=1 WtCom= 1.00D+00 WtEn= 0.00D+00
 Coeff-Com: -0.215D-03 0.714D-03 0.296D-02 0.444D-02 0.566D-01 0.162D+00
 Coeff-Com:  0.774D+00
 Coeff:     -0.215D-03 0.714D-03 0.296D-02 0.444D-02 0.566D-01 0.162D+00
 Coeff:      0.774D+00
 Gap=     0.219 Goal=   None    Shift=    0.000
 RMSDP=3.26D-09 MaxDP=6.46D-08 DE=-2.39D-12 OVMax= 1.27D-07

 SCF Done:  E(RB3LYP) =  -307.464438194     A.U. after   14 cycles
            NFock= 14  Conv=0.33D-08     -V/T= 2.0093
 KE= 3.046177176312D+02 PE=-1.257902614895D+03 EE= 3.744340917623D+02
 Leave Link  502 at Thu Mar 19 17:16:57 2026, MaxMem=   536870912 cpu:        12.0
 (Enter C:\G09W\l601.exe)
 Copying SCF densities to generalized density rwf, IOpCl= 0 IROHF=0.

 **********************************************************************

            Population analysis using the SCF density.

 **********************************************************************

 Orbital symmetries:
       Occupied  (A) (A) (A) (A) (A) (A) (A) (A) (A) (A) (A) (A)
                 (A) (A) (A) (A) (A) (A) (A) (A) (A) (A) (A) (A)
                 (A)
       Virtual   (A) (A) (A) (A) (A) (A) (A) (A) (A) (A) (A) (A)
                 (A) (A) (A) (A) (A) (A) (A) (A) (A) (A) (A) (A)
                 (A) (A) (A) (A) (A) (A) (A) (A) (A) (A) (A) (A)
                 (A) (A) (A) (A) (A) (A) (A) (A) (A) (A) (A) (A)
                 (A) (A) (A) (A) (A) (A) (A) (A) (A) (A) (A) (A)
                 (A) (A) (A) (A) (A) (A) (A) (A) (A) (A) (A) (A)
                 (A) (A) (A) (A) (A) (A) (A) (A) (A) (A) (A) (A)
                 (A) (A) (A) (A) (A) (A) (A) (A)
 The electronic state is 1-A.
 Alpha  occ. eigenvalues --  -19.17604 -10.24613 -10.19057 -10.18872 -10.18720
 Alpha  occ. eigenvalues --  -10.18156 -10.18020  -1.05850  -0.84567  -0.74567
 Alpha  occ. eigenvalues --   -0.73352  -0.62155  -0.59815  -0.54147  -0.49463
 Alpha  occ. eigenvalues --   -0.46279  -0.43587  -0.42193  -0.40439  -0.38412
 Alpha  occ. eigenvalues --   -0.35651  -0.33858  -0.33042  -0.24916  -0.21880
 Alpha virt. eigenvalues --    0.00060   0.01874   0.06917   0.09342   0.14469
 Alpha virt. eigenvalues --    0.15577   0.17135   0.18962   0.19049   0.24754
 Alpha virt. eigenvalues --    0.30348   0.30715   0.34356   0.35526   0.48485
 Alpha virt. eigenvalues --    0.51826   0.52422   0.54880   0.57069   0.59608
 Alpha virt. eigenvalues --    0.59929   0.60456   0.61582   0.61937   0.62118
 Alpha virt. eigenvalues --    0.64578   0.66439   0.67562   0.75257   0.75832
 Alpha virt. eigenvalues --    0.83681   0.83790   0.85237   0.86639   0.89569
 Alpha virt. eigenvalues --    0.92750   0.93448   0.95691   0.95787   0.99184
 Alpha virt. eigenvalues --    1.04132   1.10243   1.11741   1.17841   1.20293
 Alpha virt. eigenvalues --    1.25011   1.27162   1.35956   1.38253   1.44436
 Alpha virt. eigenvalues --    1.44629   1.46774   1.49718   1.51250   1.67023
 Alpha virt. eigenvalues --    1.73511   1.77680   1.79819   1.85490   1.90071
 Alpha virt. eigenvalues --    1.93148   1.97026   1.97374   1.98239   2.07846
 Alpha virt. eigenvalues --    2.11823   2.14151   2.15229   2.24832   2.25506
 Alpha virt. eigenvalues --    2.30724   2.32102   2.40329   2.50226   2.54050
 Alpha virt. eigenvalues --    2.57214   2.65497   2.66403   2.72268   2.72612
 Alpha virt. eigenvalues --    2.74760   2.83652   2.95283   3.11020   3.42498
 Alpha virt. eigenvalues --    3.93502   4.09038   4.11717   4.18251   4.32986
 Alpha virt. eigenvalues --    4.40972   4.72986
          Condensed to atoms (all electrons):
               1          2          3          4          5          6
     1  O    8.227863   0.284881  -0.061116   0.004662   0.000276   0.002831
     2  C    0.284881   4.468017   0.506738  -0.003367  -0.041064  -0.012505
     3  C   -0.061116   0.506738   5.090816   0.500596  -0.041617  -0.038786
     4  C    0.004662  -0.003367   0.500596   4.855355   0.557470  -0.026882
     5  C    0.000276  -0.041064  -0.041617   0.557470   4.868187   0.547855
     6  C    0.002831  -0.012505  -0.038786  -0.026882   0.547855   4.841694
     7  C   -0.051744   0.549344  -0.073033  -0.036893  -0.038403   0.540463
     8  H    0.243206  -0.033354  -0.003731   0.000606  -0.000016  -0.000195
     9  H   -0.006145  -0.047377   0.346248  -0.036660   0.004775   0.000474
    10  H   -0.000060   0.003290  -0.037974   0.355173  -0.041311   0.004706
    11  H    0.000002   0.000758   0.005167  -0.043452   0.359142  -0.043572
    12  H   -0.000059   0.004445   0.000618   0.004890  -0.043318   0.359108
    13  H   -0.001614  -0.037198   0.006782   0.000084   0.005097  -0.043615
               7          8          9         10         11         12
     1  O   -0.051744   0.243206  -0.006145  -0.000060   0.000002  -0.000059
     2  C    0.549344  -0.033354  -0.047377   0.003290   0.000758   0.004445
     3  C   -0.073033  -0.003731   0.346248  -0.037974   0.005167   0.000618
     4  C   -0.036893   0.000606  -0.036660   0.355173  -0.043452   0.004890
     5  C   -0.038403  -0.000016   0.004775  -0.041311   0.359142  -0.043318
     6  C    0.540463  -0.000195   0.000474   0.004706  -0.043572   0.359108
     7  C    4.948369   0.006313   0.005107   0.000712   0.004741  -0.041314
     8  H    0.006313   0.373683   0.007633  -0.000017  -0.000001   0.000006
     9  H    0.005107   0.007633   0.614196  -0.006098  -0.000186   0.000014
    10  H    0.000712  -0.000017  -0.006098   0.597254  -0.005667  -0.000194
    11  H    0.004741  -0.000001  -0.000186  -0.005667   0.605097  -0.005674
    12  H   -0.041314   0.000006   0.000014  -0.000194  -0.005674   0.596065
    13  H    0.348118  -0.000294  -0.000165   0.000015  -0.000169  -0.006307
              13
     1  O   -0.001614
     2  C   -0.037198
     3  C    0.006782
     4  C    0.000084
     5  C    0.005097
     6  C   -0.043615
     7  C    0.348118
     8  H   -0.000294
     9  H   -0.000165
    10  H    0.000015
    11  H   -0.000169
    12  H   -0.006307
    13  H    0.591009
 Mulliken charges:
               1
     1  O   -0.642983
     2  C    0.357393
     3  C   -0.200708
     4  C   -0.131583
     5  C   -0.137071
     6  C   -0.131575
     7  C   -0.161779
     8  H    0.406160
     9  H    0.118184
    10  H    0.130172
    11  H    0.123815
    12  H    0.131719
    13  H    0.138257
 Sum of Mulliken charges =   0.00000
 Mulliken charges with hydrogens summed into heavy atoms:
               1
     1  O   -0.236823
     2  C    0.357393
     3  C   -0.082524
     4  C   -0.001411
     5  C   -0.013256
     6  C    0.000144
     7  C   -0.023522
 Electronic spatial extent (au):  <R**2>=            662.0679
 Charge=              0.0000 electrons
 Dipole moment (field-independent basis, Debye):
    X=              0.0365    Y=              1.3535    Z=              0.0000  Tot=              1.3540
 Quadrupole moment (field-independent basis, Debye-Ang):
   XX=            -36.8512   YY=            -35.1984   ZZ=            -43.7041
   XY=              4.4420   XZ=              0.0000   YZ=              0.0000
 Traceless Quadrupole moment (field-independent basis, Debye-Ang):
   XX=              1.7333   YY=              3.3862   ZZ=             -5.1195
   XY=              4.4420   XZ=              0.0000   YZ=              0.0000
 Octapole moment (field-independent basis, Debye-Ang**2):
  XXX=              9.3952  YYY=              0.1421  ZZZ=              0.0000  XYY=              4.9157
  XXY=             12.4384  XXZ=              0.0000  XZZ=              5.4968  YZZ=             -0.0322
  YYZ=              0.0000  XYZ=              0.0000
 Hexadecapole moment (field-independent basis, Debye-Ang**3):
 XXXX=           -469.9729 YYYY=           -273.1850 ZZZZ=            -43.2847 XXXY=             35.9331
 XXXZ=             -0.0001 YYYX=              2.8728 YYYZ=              0.0000 ZZZX=              0.0000
 ZZZY=              0.0000 XXYY=           -117.5441 XXZZ=            -98.7309 YYZZ=            -62.1950
 XXYZ=              0.0000 YYXZ=              0.0000 ZZXY=              0.5237
 N-N= 2.713863673075D+02 E-N=-1.257902614454D+03  KE= 3.046177176312D+02
 No NMR shielding tensors so no spin-rotation constants.
 Leave Link  601 at Thu Mar 19 17:16:58 2026, MaxMem=   536870912 cpu:         0.0
 (Enter C:\G09W\l701.exe)
 Compute integral first derivatives.
 ... and contract with generalized density number  0.
 Leave Link  701 at Thu Mar 19 17:16:58 2026, MaxMem=   536870912 cpu:         0.0
 (Enter C:\G09W\l702.exe)
 L702 exits ... SP integral derivatives will be done elsewhere.
 Leave Link  702 at Thu Mar 19 17:16:59 2026, MaxMem=   536870912 cpu:         0.0
 (Enter C:\G09W\l703.exe)
 Compute integral first derivatives, UseDBF=F ICtDFT=           0.
 Integral derivatives from FoFJK, PRISM(SPDF).
 Calling FoFJK, ICntrl=      2127 FMM=F ISym2X=0 I1Cent= 0 IOpClX= 0 NMat=1 NMatS=1 NMatT=0.
 FoFJK:  IHMeth= 1 ICntrl=    2127 DoSepK=F KAlg= 0 I1Cent=   0 FoldK=F
 IRaf=         0 NMat=   1 IRICut=       1 DoRegI=T DoRafI=F ISym2E= 0.
 FoFCou: FMM=F IPFlag=           0 FMFlag=      100000 FMFlg1=         800
         NFxFlg=           0 DoJE=F BraDBF=F KetDBF=F FulRan=T
         wScrn=  0.000000 ICntrl=    2127 IOpCl=  0 I1Cent=           0 NGrid=           0
         NMat0=    1 NMatS0=      1 NMatT0=    0 NMatD0=    1 NMtDS0=    0 NMtDT0=    0
 Symmetry not used in FoFCou.
 Leave Link  703 at Thu Mar 19 17:17:01 2026, MaxMem=   536870912 cpu:         2.0
 (Enter C:\G09W\l716.exe)
 Dipole        = 1.43420145D-02 5.32507363D-01-2.26104534D-07
 ***** Axes restored to original set *****
 -------------------------------------------------------------------
 Center     Atomic                   Forces (Hartrees/Bohr)
 Number     Number              X              Y              Z
 -------------------------------------------------------------------
      1        8           0.006217931    0.000746668   -0.000540862
      2        6           0.006207558   -0.002931881    0.000917492
      3        6          -0.010361738   -0.003727691    0.001885387
      4        6          -0.000449167    0.002602025   -0.001013258
      5        6          -0.005333116   -0.001446594    0.000783356
      6        6           0.003046016   -0.002686285    0.000944328
      7        6          -0.006833201    0.008322662   -0.003029174
      8        1           0.000224918    0.001525719   -0.000613568
      9        1           0.003483897   -0.000739625    0.000155894
     10        1           0.000818170   -0.000174201    0.000036764
     11        1           0.000324835   -0.000268727    0.000093745
     12        1           0.000562207    0.000150375   -0.000081637
     13        1           0.002091690   -0.001372444    0.000461533
 -------------------------------------------------------------------
 Cartesian Forces:  Max     0.010361738 RMS     0.003270448
 Leave Link  716 at Thu Mar 19 17:17:01 2026, MaxMem=   536870912 cpu:         0.0
 (Enter C:\G09W\l103.exe)

 GradGradGradGradGradGradGradGradGradGradGradGradGradGradGradGradGradGrad
 Berny optimization.
 FormGI is forming the generalized inverse of G from B-inverse, IUseBI=4.
 Internal  Forces:  Max     0.006659506 RMS     0.002075412
 Search for a local minimum.
 Step number   1 out of a maximum of   68
 All quantities printed in internal units (Hartrees-Bohrs-Radians)
 RMS Force = .20754D-02 SwitMx=.10000D-02 MixMth= 1
 Mixed Optimization -- RFO/linear search
 Second derivative matrix not updated -- first step.
 ITU=  0
     Eigenvalues ---    0.02142   0.02146   0.02146   0.02155   0.02161
     Eigenvalues ---    0.02169   0.02172   0.02186   0.02192   0.02203
     Eigenvalues ---    0.16000   0.16000   0.16000   0.16000   0.16000
     Eigenvalues ---    0.16000   0.22000   0.22000   0.23494   0.25000
     Eigenvalues ---    0.35160   0.35172   0.35204   0.35270   0.35389
     Eigenvalues ---    0.42167   0.42464   0.46325   0.46433   0.46719
     Eigenvalues ---    0.47035   0.52201   0.53184
 RFO step:  Lambda=-8.12628811D-04 EMin= 2.14203444D-02
 Linear search not attempted -- first point.
 Iteration  1 RMS(Cart)=  0.01218194 RMS(Int)=  0.00006439
 Iteration  2 RMS(Cart)=  0.00007956 RMS(Int)=  0.00000439
 Iteration  3 RMS(Cart)=  0.00000000 RMS(Int)=  0.00000439
 ITry= 1 IFail=0 DXMaxC= 5.33D-02 DCOld= 1.00D+10 DXMaxT= 3.00D-01 DXLimC= 3.00D+00 Rises=F
 Variable       Old X    -DE/DX   Delta X   Delta X   Delta X     New X
                                 (Linear)    (Quad)   (Total)
    R1        2.57707   0.00666   0.00000   0.01274   0.01274   2.58981
    R2        1.83482  -0.00142   0.00000  -0.00266  -0.00266   1.83216
    R3        2.63067   0.00664   0.00000   0.01457   0.01458   2.64525
    R4        2.62749   0.00612   0.00000   0.01342   0.01342   2.64092
    R5        2.63801   0.00082   0.00000   0.00173   0.00172   2.63973
    R6        2.05049   0.00251   0.00000   0.00708   0.00708   2.05757
    R7        2.63800  -0.00039   0.00000  -0.00134  -0.00135   2.63665
    R8        2.05397  -0.00021   0.00000  -0.00059  -0.00059   2.05338
    R9        2.63687   0.00221   0.00000   0.00430   0.00430   2.64117
   R10        2.05415  -0.00031   0.00000  -0.00087  -0.00087   2.05328
   R11        2.63558   0.00033   0.00000   0.00076   0.00076   2.63635
   R12        2.05345  -0.00017   0.00000  -0.00048  -0.00048   2.05297
   R13        2.05238  -0.00035   0.00000  -0.00098  -0.00098   2.05140
    A1        1.89307   0.00160   0.00000   0.00998   0.00998   1.90305
    A2        2.11845   0.00529   0.00000   0.02032   0.02032   2.13876
    A3        2.05536  -0.00128   0.00000  -0.00586  -0.00587   2.04950
    A4        2.10938  -0.00401   0.00000  -0.01446  -0.01445   2.09492
    A5        2.08374   0.00158   0.00000   0.00770   0.00771   2.09144
    A6        2.11700  -0.00338   0.00000  -0.02000  -0.02000   2.09701
    A7        2.08244   0.00181   0.00000   0.01230   0.01229   2.09474
    A8        2.09622   0.00167   0.00000   0.00607   0.00606   2.10228
    A9        2.09471  -0.00167   0.00000  -0.00824  -0.00823   2.08647
   A10        2.09226   0.00000   0.00000   0.00217   0.00217   2.09443
   A11        2.09509  -0.00224   0.00000  -0.01253  -0.01254   2.08255
   A12        2.09473   0.00080   0.00000   0.00430   0.00430   2.09903
   A13        2.09337   0.00144   0.00000   0.00823   0.00824   2.10161
   A14        2.09346   0.00333   0.00000   0.01387   0.01387   2.10733
   A15        2.09663  -0.00109   0.00000  -0.00337  -0.00337   2.09326
   A16        2.09310  -0.00224   0.00000  -0.01050  -0.01050   2.08260
   A17        2.08849  -0.00033   0.00000  -0.00065  -0.00064   2.08785
   A18        2.09491  -0.00242   0.00000  -0.01573  -0.01574   2.07917
   A19        2.09979   0.00275   0.00000   0.01638   0.01638   2.11616
    D1        0.00000   0.00000   0.00000   0.00000   0.00000   0.00000
    D2        3.14159   0.00000   0.00000   0.00000   0.00000   3.14159
    D3       -3.14159   0.00000   0.00000   0.00000   0.00000   3.14159
    D4        0.00000   0.00000   0.00000   0.00000   0.00000   0.00000
    D5        0.00000   0.00000   0.00000   0.00000   0.00000   0.00000
    D6        3.14159   0.00000   0.00000   0.00000   0.00000   3.14159
    D7       -3.14159   0.00000   0.00000   0.00000   0.00000   3.14159
    D8        0.00000   0.00000   0.00000   0.00000   0.00000   0.00000
    D9        0.00000   0.00000   0.00000   0.00000   0.00000   0.00000
   D10        3.14159   0.00000   0.00000   0.00000   0.00000   3.14159
   D11        0.00000   0.00000   0.00000   0.00000   0.00000   0.00000
   D12        3.14159   0.00000   0.00000   0.00000   0.00000  -3.14159
   D13        3.14159   0.00000   0.00000   0.00000   0.00000  -3.14159
   D14        0.00000   0.00000   0.00000   0.00000   0.00000   0.00000
   D15        0.00000   0.00000   0.00000   0.00000   0.00000   0.00000
   D16       -3.14159   0.00000   0.00000   0.00000   0.00000   3.14159
   D17        3.14159   0.00000   0.00000   0.00000   0.00000   3.14159
   D18        0.00000   0.00000   0.00000   0.00000   0.00000   0.00000
   D19        0.00000   0.00000   0.00000   0.00000   0.00000   0.00000
   D20        3.14159   0.00000   0.00000   0.00000   0.00000  -3.14159
   D21       -3.14159   0.00000   0.00000   0.00000   0.00000   3.14159
   D22        0.00000   0.00000   0.00000   0.00000   0.00000   0.00000
   D23        0.00000   0.00000   0.00000   0.00000   0.00000   0.00000
   D24        3.14159   0.00000   0.00000   0.00000   0.00000  -3.14159
   D25       -3.14159   0.00000   0.00000   0.00000   0.00000  -3.14159
   D26        0.00000   0.00000   0.00000   0.00000   0.00000   0.00000
         Item               Value     Threshold  Converged?
 Maximum Force            0.006660     0.000450     NO 
 RMS     Force            0.002075     0.000300     NO 
 Maximum Displacement     0.053289     0.001800     NO 
 RMS     Displacement     0.012178     0.001200     NO 
 Predicted change in Energy=-4.075800D-04
 Lowest energy point so far.  Saving SCF results.
 GradGradGradGradGradGradGradGradGradGradGradGradGradGradGradGradGradGrad

 Leave Link  103 at Thu Mar 19 17:17:01 2026, MaxMem=   536870912 cpu:         0.0
 (Enter C:\G09W\l202.exe)
                          Input orientation:                          
 ---------------------------------------------------------------------
 Center     Atomic      Atomic             Coordinates (Angstroms)
 Number     Number       Type             X           Y           Z
 ---------------------------------------------------------------------
      1          8           0        2.490003    0.218760   -0.196639
      2          6           0        1.127799    0.105365   -0.098032
      3          6           0        0.501327   -1.049715    0.384440
      4          6           0       -0.892412   -1.103975    0.460853
      5          6           0       -1.665583   -0.014129    0.059376
      6          6           0       -1.031454    1.134999   -0.421039
      7          6           0        0.359737    1.200808   -0.501927
      8          1           0        2.899064   -0.603821    0.113258
      9          1           0        1.097841   -1.904317    0.699642
     10          1           0       -1.373880   -2.002910    0.836095
     11          1           0       -2.749481   -0.059611    0.120104
     12          1           0       -1.623749    1.989406   -0.736330
     13          1           0        0.860788    2.089139   -0.873738
 ---------------------------------------------------------------------
                    Distance matrix (angstroms):
                    1          2          3          4          5
     1  O    0.000000
     2  C    1.370467   0.000000
     3  C    2.429303   1.399806   0.000000
     4  C    3.690888   2.419940   1.396886   0.000000
     5  C    4.169973   2.800365   2.423552   1.395257   0.000000
     6  C    3.645615   2.413888   2.787685   2.410409   1.397645
     7  C    2.365513   1.397514   2.422921   2.794073   2.427561
     8  H    0.969539   1.919627   2.453876   3.840087   4.602896
     9  H    2.692376   2.162407   1.088819   2.158397   3.408705
    10  H    4.575145   3.402326   2.151505   1.086601   2.154910
    11  H    5.256425   3.886914   3.408508   2.157664   1.086549
    12  H    4.511032   3.395299   3.874059   3.396632   2.156166
    13  H    2.571210   2.146712   3.400681   3.879539   3.417161
                    6          7          8          9         10
     6  C    0.000000
     7  C    1.395094   0.000000
     8  H    4.331044   3.175424   0.000000
     9  H    3.876502   3.410332   2.297726   0.000000
    10  H    3.397663   3.880662   4.553900   2.477448   0.000000
    11  H    2.161375   3.412156   5.674705   4.305891   2.486229
    12  H    1.086385   2.147335   5.282278   4.962878   4.298086
    13  H    2.167003   1.085554   3.518631   4.298769   4.966099
                   11         12         13
    11  H    0.000000
    12  H    2.489823   0.000000
    13  H    4.317278   2.490331   0.000000
 Stoichiometry    C6H6O
 Framework group  C1[X(C6H6O)]
 Deg. of freedom    33
 Full point group                 C1      NOp   1
 RotChk:  IX=2 Diff= 1.07D-02
 Largest Abelian subgroup         C1      NOp   1
 Largest concise Abelian subgroup C1      NOp   1
                         Standard orientation:                         
 ---------------------------------------------------------------------
 Center     Atomic      Atomic             Coordinates (Angstroms)
 Number     Number       Type             X           Y           Z
 ---------------------------------------------------------------------
      1          8           0        2.309600   -0.110303    0.000000
      2          6           0        0.941763   -0.025434    0.000000
      3          6           0        0.263301    1.198963    0.000000
      4          6           0       -1.133435    1.219421    0.000000
      5          6           0       -1.858109    0.027116    0.000000
      6          6           0       -1.172254   -1.190676    0.000000
      7          6           0        0.222451   -1.223614    0.000000
      8          1           0        2.681986    0.784870    0.000000
      9          1           0        0.821782    2.133642    0.000001
     10          1           0       -1.655361    2.172466   -0.000001
     11          1           0       -2.944484    0.046556    0.000000
     12          1           0       -1.726522   -2.125031    0.000000
     13          1           0        0.763493   -2.164731   -0.000001
 ---------------------------------------------------------------------
 Rotational constants (GHZ):      5.6482163      2.6084553      1.7843897
 Leave Link  202 at Thu Mar 19 17:17:02 2026, MaxMem=   536870912 cpu:         0.0
 (Enter C:\G09W\l301.exe)
 Standard basis: 6-31G(d) (6D, 7F)
 Ernie: Thresh=  0.10000D-02 Tol=  0.10000D-05 Strict=F.
 There are   117 symmetry adapted cartesian basis functions of A   symmetry.
 There are   117 symmetry adapted basis functions of A   symmetry.
   117 basis functions,   220 primitive gaussians,   117 cartesian basis functions
    25 alpha electrons       25 beta electrons
       nuclear repulsion energy       270.6270663226 Hartrees.
 IExCor=  402 DFT=T Ex+Corr=B3LYP ExCW=0 ScaHFX=  0.200000
 ScaDFX=  0.800000  0.720000  1.000000  0.810000 ScalE2=  1.000000  1.000000
 IRadAn=      0 IRanWt=     -1 IRanGd=            0 ICorTp=0 IEmpDi=  4
 NAtoms=   13 NActive=   13 NUniq=   13 SFac= 1.00D+00 NAtFMM=   60 NAOKFM=F Big=F
 Integral buffers will be    131072 words long.
 Raffenetti 2 integral format.
 Two-electron integral symmetry is turned on.
 Leave Link  301 at Thu Mar 19 17:17:02 2026, MaxMem=   536870912 cpu:         0.0
 (Enter C:\G09W\l302.exe)
 NPDir=0 NMtPBC=     1 NCelOv=     1 NCel=       1 NClECP=     1 NCelD=      1
         NCelK=      1 NCelE2=     1 NClLst=     1 CellRange=     0.0.
 One-electron integrals computed using PRISM.
 NBasis=   117 RedAO= T EigKep=  4.87D-04  NBF=   117
 NBsUse=   117 1.00D-06 EigRej= -1.00D+00 NBFU=   117
 Precomputing XC quadrature grid using
 IXCGrd= 4 IRadAn=           0 IRanWt=          -1 IRanGd=           0 AccXCQ= 0.00D+00.
 Generated NRdTot=       0 NPtTot=           0 NUsed=           0 NTot=          32
 NSgBfM=   117   117   117   117   117 MxSgAt=    13 MxSgA2=    13.
 Leave Link  302 at Thu Mar 19 17:17:02 2026, MaxMem=   536870912 cpu:         0.0
 (Enter C:\G09W\l303.exe)
 DipDrv:  MaxL=1.
 Leave Link  303 at Thu Mar 19 17:17:03 2026, MaxMem=   536870912 cpu:         0.0
 (Enter C:\G09W\l401.exe)
 Initial guess from the checkpoint file:  "phenol_rdkit.chk"
 B after Tr=     0.000000    0.000000    0.000000
         Rot=    0.999993    0.000000    0.000000   -0.003774 Ang=  -0.43 deg.
 Guess basis will be translated and rotated to current coordinates.
 JPrj=2 DoOrth=T DoCkMO=T.
 Generating alternative initial guess.
 ExpMin= 1.61D-01 ExpMax= 5.48D+03 ExpMxC= 8.25D+02 IAcc=1 IRadAn=         1 AccDes= 0.00D+00
 Harris functional with IExCor=  402 and IRadAn=       1 diagonalized for initial guess.
 HarFok:  IExCor=  402 AccDes= 0.00D+00 IRadAn=         1 IDoV= 1 UseB2=F ITyADJ=14
 ICtDFT=  3500011 ScaDFX=  1.000000  1.000000  1.000000  1.000000
 FoFCou: FMM=F IPFlag=           0 FMFlag=      100000 FMFlg1=           0
         NFxFlg=           0 DoJE=T BraDBF=F KetDBF=T FulRan=T
         wScrn=  0.000000 ICntrl=     500 IOpCl=  0 I1Cent=   200000004 NGrid=           0
         NMat0=    1 NMatS0=      1 NMatT0=    0 NMatD0=    1 NMtDS0=    0 NMtDT0=    0
 Petite list used in FoFCou.
 Harris En= -307.496862479335    
 Leave Link  401 at Thu Mar 19 17:17:04 2026, MaxMem=   536870912 cpu:         1.0
 (Enter C:\G09W\l502.exe)
 Closed shell SCF:
 Using DIIS extrapolation, IDIIS=  1040.
 Integral symmetry usage will be decided dynamically.
 Keep R1 ints in memory in canonical form, NReq=24830210.
 IVT=       61204 IEndB=       61204 NGot=   536870912 MDV=   512980553
 LenX=   512980553 LenY=   512966423
 Requested convergence on RMS density matrix=1.00D-08 within 128 cycles.
 Requested convergence on MAX density matrix=1.00D-06.
 Requested convergence on             energy=1.00D-06.
 No special actions if energy rises.
 FoFCou: FMM=F IPFlag=           0 FMFlag=           0 FMFlg1=           0
         NFxFlg=           0 DoJE=F BraDBF=F KetDBF=F FulRan=T
         wScrn=  0.000000 ICntrl=     600 IOpCl=  0 I1Cent=           0 NGrid=           0
         NMat0=    1 NMatS0=   6903 NMatT0=    0 NMatD0=    1 NMtDS0=    0 NMtDT0=    0
 Symmetry not used in FoFCou.
 Integral accuracy reduced to 1.0D-05 until final iterations.

 Cycle   1  Pass 0  IDiag  1:
 E= -307.464721685857    
 DIIS: error= 7.67D-04 at cycle   1 NSaved=   1.
 NSaved= 1 IEnMin= 1 EnMin= -307.464721685857     IErMin= 1 ErrMin= 7.67D-04
 ErrMax= 7.67D-04  0.00D+00 EMaxC= 1.00D-01 BMatC= 1.19D-04 BMatP= 1.19D-04
 IDIUse=3 WtCom= 9.92D-01 WtEn= 7.67D-03
 Coeff-Com:  0.100D+01
 Coeff-En:   0.100D+01
 Coeff:      0.100D+01
 Gap=     1.833 Goal=   None    Shift=    0.000
 RMSDP=2.13D-04 MaxDP=3.22D-03              OVMax= 2.93D-03

 Cycle   2  Pass 0  IDiag  1:
 E= -307.464873317491     Delta-E=       -0.000151631634 Rises=F Damp=F
 DIIS: error= 4.42D-04 at cycle   2 NSaved=   2.
 NSaved= 2 IEnMin= 2 EnMin= -307.464873317491     IErMin= 2 ErrMin= 4.42D-04
 ErrMax= 4.42D-04  0.00D+00 EMaxC= 1.00D-01 BMatC= 2.04D-05 BMatP= 1.19D-04
 IDIUse=3 WtCom= 9.96D-01 WtEn= 4.42D-03
 Coeff-Com:  0.191D+00 0.809D+00
 Coeff-En:   0.000D+00 0.100D+01
 Coeff:      0.190D+00 0.810D+00
 Gap=     0.220 Goal=   None    Shift=    0.000
 RMSDP=7.83D-05 MaxDP=1.61D-03 DE=-1.52D-04 OVMax= 3.66D-03

 Cycle   3  Pass 0  IDiag  1:
 E= -307.464864383153     Delta-E=        0.000008934338 Rises=F Damp=F
 DIIS: error= 6.78D-04 at cycle   3 NSaved=   3.
 NSaved= 3 IEnMin= 2 EnMin= -307.464873317491     IErMin= 2 ErrMin= 4.42D-04
 ErrMax= 6.78D-04  0.00D+00 EMaxC= 1.00D-01 BMatC= 2.77D-05 BMatP= 2.04D-05
 IDIUse=3 WtCom= 2.78D-01 WtEn= 7.22D-01
 Coeff-Com: -0.178D-01 0.544D+00 0.474D+00
 Coeff-En:   0.000D+00 0.573D+00 0.427D+00
 Coeff:     -0.493D-02 0.565D+00 0.440D+00
 Gap=     0.220 Goal=   None    Shift=    0.000
 RMSDP=4.72D-05 MaxDP=8.81D-04 DE= 8.93D-06 OVMax= 2.43D-03

 Cycle   4  Pass 0  IDiag  1:
 E= -307.464893816460     Delta-E=       -0.000029433307 Rises=F Damp=F
 DIIS: error= 5.49D-05 at cycle   4 NSaved=   4.
 NSaved= 4 IEnMin= 4 EnMin= -307.464893816460     IErMin= 4 ErrMin= 5.49D-05
 ErrMax= 5.49D-05  0.00D+00 EMaxC= 1.00D-01 BMatC= 4.30D-07 BMatP= 2.04D-05
 IDIUse=1 WtCom= 1.00D+00 WtEn= 0.00D+00
 Coeff-Com: -0.170D-01 0.246D+00 0.215D+00 0.556D+00
 Coeff:     -0.170D-01 0.246D+00 0.215D+00 0.556D+00
 Gap=     0.220 Goal=   None    Shift=    0.000
 RMSDP=8.23D-06 MaxDP=1.30D-04 DE=-2.94D-05 OVMax= 2.56D-04

 Initial convergence to 1.0D-05 achieved.  Increase integral accuracy.
 Cycle   5  Pass 1  IDiag  1:
 E= -307.464849048511     Delta-E=        0.000044767949 Rises=F Damp=F
 DIIS: error= 5.04D-05 at cycle   1 NSaved=   1.
 NSaved= 1 IEnMin= 1 EnMin= -307.464849048511     IErMin= 1 ErrMin= 5.04D-05
 ErrMax= 5.04D-05  0.00D+00 EMaxC= 1.00D-01 BMatC= 1.20D-07 BMatP= 1.20D-07
 IDIUse=1 WtCom= 1.00D+00 WtEn= 0.00D+00
 Coeff-Com:  0.100D+01
 Coeff:      0.100D+01
 Gap=     0.220 Goal=   None    Shift=    0.000
 RMSDP=8.23D-06 MaxDP=1.30D-04 DE= 4.48D-05 OVMax= 1.80D-04

 Cycle   6  Pass 1  IDiag  1:
 E= -307.464849059960     Delta-E=       -0.000000011449 Rises=F Damp=F
 DIIS: error= 3.44D-05 at cycle   2 NSaved=   2.
 NSaved= 2 IEnMin= 2 EnMin= -307.464849059960     IErMin= 2 ErrMin= 3.44D-05
 ErrMax= 3.44D-05  0.00D+00 EMaxC= 1.00D-01 BMatC= 1.40D-07 BMatP= 1.20D-07
 IDIUse=1 WtCom= 1.00D+00 WtEn= 0.00D+00
 Coeff-Com:  0.523D+00 0.477D+00
 Coeff:      0.523D+00 0.477D+00
 Gap=     0.220 Goal=   None    Shift=    0.000
 RMSDP=3.62D-06 MaxDP=8.55D-05 DE=-1.14D-08 OVMax= 1.47D-04

 Cycle   7  Pass 1  IDiag  1:
 E= -307.464849169864     Delta-E=       -0.000000109905 Rises=F Damp=F
 DIIS: error= 1.13D-05 at cycle   3 NSaved=   3.
 NSaved= 3 IEnMin= 3 EnMin= -307.464849169864     IErMin= 3 ErrMin= 1.13D-05
 ErrMax= 1.13D-05  0.00D+00 EMaxC= 1.00D-01 BMatC= 1.21D-08 BMatP= 1.20D-07
 IDIUse=1 WtCom= 1.00D+00 WtEn= 0.00D+00
 Coeff-Com:  0.208D-01 0.225D+00 0.754D+00
 Coeff:      0.208D-01 0.225D+00 0.754D+00
 Gap=     0.220 Goal=   None    Shift=    0.000
 RMSDP=1.20D-06 MaxDP=2.63D-05 DE=-1.10D-07 OVMax= 6.33D-05

 Cycle   8  Pass 1  IDiag  1:
 E= -307.464849178723     Delta-E=       -0.000000008858 Rises=F Damp=F
 DIIS: error= 4.71D-06 at cycle   4 NSaved=   4.
 NSaved= 4 IEnMin= 4 EnMin= -307.464849178723     IErMin= 4 ErrMin= 4.71D-06
 ErrMax= 4.71D-06  0.00D+00 EMaxC= 1.00D-01 BMatC= 1.87D-09 BMatP= 1.21D-08
 IDIUse=1 WtCom= 1.00D+00 WtEn= 0.00D+00
 Coeff-Com: -0.116D-01 0.114D+00 0.460D+00 0.438D+00
 Coeff:     -0.116D-01 0.114D+00 0.460D+00 0.438D+00
 Gap=     0.220 Goal=   None    Shift=    0.000
 RMSDP=4.42D-07 MaxDP=1.02D-05 DE=-8.86D-09 OVMax= 2.00D-05

 Cycle   9  Pass 1  IDiag  1:
 E= -307.464849180717     Delta-E=       -0.000000001994 Rises=F Damp=F
 DIIS: error= 8.09D-07 at cycle   5 NSaved=   5.
 NSaved= 5 IEnMin= 5 EnMin= -307.464849180717     IErMin= 5 ErrMin= 8.09D-07
 ErrMax= 8.09D-07  0.00D+00 EMaxC= 1.00D-01 BMatC= 6.36D-11 BMatP= 1.87D-09
 IDIUse=1 WtCom= 1.00D+00 WtEn= 0.00D+00
 Coeff-Com: -0.740D-02 0.486D-01 0.209D+00 0.232D+00 0.518D+00
 Coeff:     -0.740D-02 0.486D-01 0.209D+00 0.232D+00 0.518D+00
 Gap=     0.220 Goal=   None    Shift=    0.000
 RMSDP=7.44D-08 MaxDP=1.49D-06 DE=-1.99D-09 OVMax= 3.46D-06

 Cycle  10  Pass 1  IDiag  1:
 E= -307.464849180779     Delta-E=       -0.000000000062 Rises=F Damp=F
 DIIS: error= 2.46D-07 at cycle   6 NSaved=   6.
 NSaved= 6 IEnMin= 6 EnMin= -307.464849180779     IErMin= 6 ErrMin= 2.46D-07
 ErrMax= 2.46D-07  0.00D+00 EMaxC= 1.00D-01 BMatC= 4.62D-12 BMatP= 6.36D-11
 IDIUse=1 WtCom= 1.00D+00 WtEn= 0.00D+00
 Coeff-Com: -0.199D-02 0.958D-02 0.472D-01 0.604D-01 0.256D+00 0.629D+00
 Coeff:     -0.199D-02 0.958D-02 0.472D-01 0.604D-01 0.256D+00 0.629D+00
 Gap=     0.220 Goal=   None    Shift=    0.000
 RMSDP=2.45D-08 MaxDP=4.62D-07 DE=-6.20D-11 OVMax= 1.19D-06

 Cycle  11  Pass 1  IDiag  1:
 E= -307.464849180784     Delta-E=       -0.000000000006 Rises=F Damp=F
 DIIS: error= 4.06D-08 at cycle   7 NSaved=   7.
 NSaved= 7 IEnMin= 7 EnMin= -307.464849180784     IErMin= 7 ErrMin= 4.06D-08
 ErrMax= 4.06D-08  0.00D+00 EMaxC= 1.00D-01 BMatC= 3.36D-13 BMatP= 4.62D-12
 IDIUse=1 WtCom= 1.00D+00 WtEn= 0.00D+00
 Coeff-Com: -0.547D-03 0.191D-02 0.113D-01 0.175D-01 0.977D-01 0.320D+00
 Coeff-Com:  0.552D+00
 Coeff:     -0.547D-03 0.191D-02 0.113D-01 0.175D-01 0.977D-01 0.320D+00
 Coeff:      0.552D+00
 Gap=     0.220 Goal=   None    Shift=    0.000
 RMSDP=6.14D-09 MaxDP=1.85D-07 DE=-5.91D-12 OVMax= 2.25D-07

 SCF Done:  E(RB3LYP) =  -307.464849181     A.U. after   11 cycles
            NFock= 11  Conv=0.61D-08     -V/T= 2.0096
 KE= 3.045518470508D+02 PE=-1.256333789321D+03 EE= 3.736900267671D+02
 Leave Link  502 at Thu Mar 19 17:17:14 2026, MaxMem=   536870912 cpu:        10.0
 (Enter C:\G09W\l701.exe)
 Compute integral first derivatives.
 ... and contract with generalized density number  0.
 Leave Link  701 at Thu Mar 19 17:17:15 2026, MaxMem=   536870912 cpu:         1.0
 (Enter C:\G09W\l702.exe)
 L702 exits ... SP integral derivatives will be done elsewhere.
 Leave Link  702 at Thu Mar 19 17:17:15 2026, MaxMem=   536870912 cpu:         0.0
 (Enter C:\G09W\l703.exe)
 Compute integral first derivatives, UseDBF=F ICtDFT=           0.
 Integral derivatives from FoFJK, PRISM(SPDF).
 Calling FoFJK, ICntrl=      2127 FMM=F ISym2X=0 I1Cent= 0 IOpClX= 0 NMat=1 NMatS=1 NMatT=0.
 FoFJK:  IHMeth= 1 ICntrl=    2127 DoSepK=F KAlg= 0 I1Cent=   0 FoldK=F
 IRaf=         0 NMat=   1 IRICut=       1 DoRegI=T DoRafI=F ISym2E= 0.
 FoFCou: FMM=F IPFlag=           0 FMFlag=      100000 FMFlg1=         800
         NFxFlg=           0 DoJE=F BraDBF=F KetDBF=F FulRan=T
         wScrn=  0.000000 ICntrl=    2127 IOpCl=  0 I1Cent=           0 NGrid=           0
         NMat0=    1 NMatS0=      1 NMatT0=    0 NMatD0=    1 NMtDS0=    0 NMtDT0=    0
 Symmetry not used in FoFCou.
 Leave Link  703 at Thu Mar 19 17:17:19 2026, MaxMem=   536870912 cpu:         4.0
 (Enter C:\G09W\l716.exe)
 Dipole        = 2.19069145D-02 5.32664718D-01-4.05565044D-07
 ***** Axes restored to original set *****
 -------------------------------------------------------------------
 Center     Atomic                   Forces (Hartrees/Bohr)
 Number     Number              X              Y              Z
 -------------------------------------------------------------------
      1        8          -0.000971390    0.000559345   -0.000183410
      2        6           0.001220109   -0.001833808    0.000678711
      3        6          -0.001120306   -0.000294136    0.000160751
      4        6           0.000761942    0.000992151   -0.000423283
      5        6          -0.000377837   -0.000097192    0.000053403
      6        6           0.001652429   -0.000521037    0.000141474
      7        6          -0.002472550    0.001311531   -0.000422421
      8        1          -0.000328263   -0.000247963    0.000111205
      9        1           0.000478489    0.000205534   -0.000100301
     10        1           0.000418498   -0.000340675    0.000118527
     11        1           0.000347234    0.000122857   -0.000062372
     12        1           0.000005749    0.000355960   -0.000141314
     13        1           0.000385894   -0.000212567    0.000069031
 -------------------------------------------------------------------
 Cartesian Forces:  Max     0.002472550 RMS     0.000753729
 Leave Link  716 at Thu Mar 19 17:17:19 2026, MaxMem=   536870912 cpu:         0.0
 (Enter C:\G09W\l103.exe)

 GradGradGradGradGradGradGradGradGradGradGradGradGradGradGradGradGradGrad
 Berny optimization.
 Using GEDIIS/GDIIS optimizer.
 FormGI is forming the generalized inverse of G from B-inverse, IUseBI=4.
 GSVD:  received Info=                   1 from GESDD.
 Internal  Forces:  Max     0.001701739 RMS     0.000426867
 Search for a local minimum.
 Step number   2 out of a maximum of   68
 All quantities printed in internal units (Hartrees-Bohrs-Radians)
 RMS Force = .42687D-03 SwitMx=.10000D-02 MixMth= 2
 Mixed Optimization -- En-DIIS/RFO-DIIS
 Update second derivatives using D2CorX and points    1    2
 DE= -4.11D-04 DEPred=-4.08D-04 R= 1.01D+00
 TightC=F SS=  1.41D+00  RLast= 5.65D-02 DXNew= 5.0454D-01 1.6938D-01
 Trust test= 1.01D+00 RLast= 5.65D-02 DXMaxT set to 3.00D-01
 ITU=  1  0
 Use linear search instead of GDIIS.
     Eigenvalues ---    0.02142   0.02146   0.02146   0.02155   0.02160
     Eigenvalues ---    0.02168   0.02172   0.02185   0.02192   0.02202
     Eigenvalues ---    0.14226   0.16000   0.16000   0.16000   0.16000
     Eigenvalues ---    0.16357   0.21711   0.22106   0.24123   0.24763
     Eigenvalues ---    0.35083   0.35174   0.35196   0.35271   0.35408
     Eigenvalues ---    0.42051   0.42230   0.45259   0.46355   0.46803
     Eigenvalues ---    0.48593   0.53153   0.56389
 RFO step:  Lambda=-3.39484705D-05 EMin= 2.14203459D-02
 Quartic linear search produced a step of  0.01468.
 Iteration  1 RMS(Cart)=  0.00222678 RMS(Int)=  0.00000339
 Iteration  2 RMS(Cart)=  0.00000342 RMS(Int)=  0.00000007
 Iteration  3 RMS(Cart)=  0.00000000 RMS(Int)=  0.00000007
 ITry= 1 IFail=0 DXMaxC= 9.80D-03 DCOld= 1.00D+10 DXMaxT= 3.00D-01 DXLimC= 3.00D+00 Rises=F
 Variable       Old X    -DE/DX   Delta X   Delta X   Delta X     New X
                                 (Linear)    (Quad)   (Total)
    R1        2.58981  -0.00126   0.00019  -0.00210  -0.00192   2.58789
    R2        1.83216   0.00010  -0.00004   0.00013   0.00009   1.83225
    R3        2.64525  -0.00084   0.00021  -0.00142  -0.00121   2.64404
    R4        2.64092   0.00097   0.00020   0.00247   0.00267   2.64358
    R5        2.63973  -0.00113   0.00003  -0.00246  -0.00243   2.63730
    R6        2.05757   0.00007   0.00010   0.00040   0.00050   2.05807
    R7        2.63665   0.00014  -0.00002   0.00024   0.00022   2.63688
    R8        2.05338   0.00014  -0.00001   0.00038   0.00037   2.05375
    R9        2.64117   0.00004   0.00006   0.00020   0.00027   2.64144
   R10        2.05328  -0.00035  -0.00001  -0.00105  -0.00106   2.05222
   R11        2.63635  -0.00170   0.00001  -0.00367  -0.00366   2.63269
   R12        2.05297   0.00032  -0.00001   0.00090   0.00090   2.05387
   R13        2.05140  -0.00002  -0.00001  -0.00008  -0.00010   2.05130
    A1        1.90305  -0.00075   0.00015  -0.00449  -0.00435   1.89870
    A2        2.13876   0.00005   0.00030   0.00073   0.00103   2.13979
    A3        2.04950  -0.00038  -0.00009  -0.00172  -0.00181   2.04769
    A4        2.09492   0.00032  -0.00021   0.00099   0.00078   2.09571
    A5        2.09144  -0.00033   0.00011  -0.00133  -0.00121   2.09023
    A6        2.09701  -0.00038  -0.00029  -0.00322  -0.00351   2.09349
    A7        2.09474   0.00071   0.00018   0.00455   0.00473   2.09946
    A8        2.10228   0.00027   0.00009   0.00132   0.00141   2.10369
    A9        2.08647  -0.00069  -0.00012  -0.00431  -0.00443   2.08204
   A10        2.09443   0.00042   0.00003   0.00298   0.00302   2.09745
   A11        2.08255  -0.00007  -0.00018  -0.00067  -0.00085   2.08169
   A12        2.09903   0.00015   0.00006   0.00102   0.00108   2.10011
   A13        2.10161  -0.00008   0.00012  -0.00035  -0.00022   2.10138
   A14        2.10733  -0.00001   0.00020   0.00039   0.00060   2.10792
   A15        2.09326   0.00022  -0.00005   0.00127   0.00122   2.09448
   A16        2.08260  -0.00021  -0.00015  -0.00166  -0.00182   2.08078
   A17        2.08785  -0.00018  -0.00001  -0.00071  -0.00072   2.08713
   A18        2.07917  -0.00036  -0.00023  -0.00296  -0.00319   2.07598
   A19        2.11616   0.00054   0.00024   0.00367   0.00391   2.12007
    D1        0.00000   0.00000   0.00000   0.00000   0.00000   0.00000
    D2        3.14159   0.00000   0.00000   0.00000   0.00000   3.14159
    D3        3.14159   0.00000   0.00000   0.00000   0.00000  -3.14159
    D4        0.00000   0.00000   0.00000   0.00000   0.00000   0.00000
    D5        0.00000   0.00000   0.00000   0.00000   0.00000   0.00000
    D6        3.14159   0.00000   0.00000   0.00000   0.00000   3.14159
    D7        3.14159   0.00000   0.00000   0.00000   0.00000  -3.14159
    D8        0.00000   0.00000   0.00000   0.00000   0.00000   0.00000
    D9        0.00000   0.00000   0.00000   0.00000   0.00000   0.00000
   D10        3.14159   0.00000   0.00000   0.00000   0.00000   3.14159
   D11        0.00000   0.00000   0.00000   0.00000   0.00000   0.00000
   D12       -3.14159   0.00000   0.00000   0.00000   0.00000   3.14159
   D13       -3.14159   0.00000   0.00000   0.00000   0.00000  -3.14159
   D14        0.00000   0.00000   0.00000   0.00000   0.00000   0.00000
   D15        0.00000   0.00000   0.00000   0.00000   0.00000   0.00000
   D16        3.14159   0.00000   0.00000   0.00000   0.00000  -3.14159
   D17        3.14159   0.00000   0.00000   0.00000   0.00000   3.14159
   D18        0.00000   0.00000   0.00000   0.00000   0.00000   0.00000
   D19        0.00000   0.00000   0.00000   0.00000   0.00000   0.00000
   D20       -3.14159   0.00000   0.00000   0.00000   0.00000  -3.14159
   D21        3.14159   0.00000   0.00000   0.00000   0.00000  -3.14159
   D22        0.00000   0.00000   0.00000   0.00000   0.00000   0.00000
   D23        0.00000   0.00000   0.00000   0.00000   0.00000   0.00000
   D24       -3.14159   0.00000   0.00000   0.00000   0.00000   3.14159
   D25       -3.14159   0.00000   0.00000   0.00000   0.00000   3.14159
   D26        0.00000   0.00000   0.00000   0.00000   0.00000   0.00000
         Item               Value     Threshold  Converged?
 Maximum Force            0.001702     0.000450     NO 
 RMS     Force            0.000427     0.000300     NO 
 Maximum Displacement     0.009804     0.001800     NO 
 RMS     Displacement     0.002228     0.001200     NO 
 Predicted change in Energy=-1.705113D-05
 Lowest energy point so far.  Saving SCF results.
 GradGradGradGradGradGradGradGradGradGradGradGradGradGradGradGradGradGrad

 Leave Link  103 at Thu Mar 19 17:17:20 2026, MaxMem=   536870912 cpu:         1.0
 (Enter C:\G09W\l202.exe)
                          Input orientation:                          
 ---------------------------------------------------------------------
 Center     Atomic      Atomic             Coordinates (Angstroms)
 Number     Number       Type             X           Y           Z
 ---------------------------------------------------------------------
      1          8           0        2.487440    0.219313   -0.196758
      2          6           0        1.126436    0.104304   -0.097558
      3          6           0        0.500642   -1.050437    0.384753
      4          6           0       -0.891881   -1.103481    0.460636
      5          6           0       -1.665714   -0.013904    0.059292
      6          6           0       -1.031095    1.135133   -0.421105
      7          6           0        0.358143    1.201178   -0.502012
      8          1           0        2.893876   -0.604413    0.113697
      9          1           0        1.100782   -1.903164    0.699069
     10          1           0       -1.369999   -2.004201    0.836453
     11          1           0       -2.749087   -0.058791    0.119763
     12          1           0       -1.622225    1.990754   -0.736923
     13          1           0        0.862682    2.087711   -0.873247
 ---------------------------------------------------------------------
                    Distance matrix (angstroms):
                    1          2          3          4          5
     1  O    0.000000
     2  C    1.369452   0.000000
     3  C    2.428536   1.399168   0.000000
     4  C    3.688057   2.417422   1.395598   0.000000
     5  C    4.167569   2.799049   2.423514   1.395375   0.000000
     6  C    3.642684   2.412930   2.787892   2.410030   1.397787
     7  C    2.364560   1.398925   2.424135   2.792974   2.426413
     8  H    0.969586   1.915921   2.449486   3.834240   4.597991
     9  H    2.688910   2.159908   1.089085   2.160335   3.410588
    10  H    4.570708   3.398582   2.147789   1.086798   2.157013
    11  H    5.253451   3.885037   3.407979   2.157959   1.085988
    12  H    4.507674   3.394498   3.874734   3.397328   2.157430
    13  H    2.566785   2.145964   3.400237   3.878330   3.417484
                    6          7          8          9         10
     6  C    0.000000
     7  C    1.393158   0.000000
     8  H    4.326365   3.173201   0.000000
     9  H    3.876976   3.410432   2.290110   0.000000
    10  H    3.398783   3.879744   4.545593   2.476659   0.000000
    11  H    2.160901   3.410133   5.669284   4.307992   2.490009
    12  H    1.086859   2.144871   5.277653   4.963813   4.301022
    13  H    2.167540   1.085503   3.513878   4.296039   4.965046
                   11         12         13
    11  H    0.000000
    12  H    2.490857   0.000000
    13  H    4.317224   2.490532   0.000000
 Stoichiometry    C6H6O
 Framework group  C1[X(C6H6O)]
 Deg. of freedom    33
 Full point group                 C1      NOp   1
 RotChk:  IX=2 Diff= 5.11D-04
 Largest Abelian subgroup         C1      NOp   1
 Largest concise Abelian subgroup C1      NOp   1
                         Standard orientation:                         
 ---------------------------------------------------------------------
 Center     Atomic      Atomic             Coordinates (Angstroms)
 Number     Number       Type             X           Y           Z
 ---------------------------------------------------------------------
      1          8           0        2.307667   -0.111761    0.000000
      2          6           0        0.940989   -0.024630    0.000000
      3          6           0        0.263664    1.199666    0.000000
      4          6           0       -1.131795    1.219354    0.000000
      5          6           0       -1.857573    0.027583    0.000000
      6          6           0       -1.171672   -1.190346    0.000000
      7          6           0        0.221077   -1.224095    0.000000
      8          1           0        2.677699    0.784439    0.000000
      9          1           0        0.826193    2.132225    0.000000
     10          1           0       -1.650104    2.174596    0.000000
     11          1           0       -2.943391    0.046790    0.000000
     12          1           0       -1.725059   -2.125774    0.000000
     13          1           0        0.765189   -2.163381    0.000000
 ---------------------------------------------------------------------
 Rotational constants (GHZ):      5.6464848      2.6123871      1.7860556
 Leave Link  202 at Thu Mar 19 17:17:20 2026, MaxMem=   536870912 cpu:         0.0
 (Enter C:\G09W\l301.exe)
 Standard basis: 6-31G(d) (6D, 7F)
 Ernie: Thresh=  0.10000D-02 Tol=  0.10000D-05 Strict=F.
 There are   117 symmetry adapted cartesian basis functions of A   symmetry.
 There are   117 symmetry adapted basis functions of A   symmetry.
   117 basis functions,   220 primitive gaussians,   117 cartesian basis functions
    25 alpha electrons       25 beta electrons
       nuclear repulsion energy       270.7221123188 Hartrees.
 IExCor=  402 DFT=T Ex+Corr=B3LYP ExCW=0 ScaHFX=  0.200000
 ScaDFX=  0.800000  0.720000  1.000000  0.810000 ScalE2=  1.000000  1.000000
 IRadAn=      0 IRanWt=     -1 IRanGd=            0 ICorTp=0 IEmpDi=  4
 NAtoms=   13 NActive=   13 NUniq=   13 SFac= 1.00D+00 NAtFMM=   60 NAOKFM=F Big=F
 Integral buffers will be    131072 words long.
 Raffenetti 2 integral format.
 Two-electron integral symmetry is turned on.
 Leave Link  301 at Thu Mar 19 17:17:20 2026, MaxMem=   536870912 cpu:         0.0
 (Enter C:\G09W\l302.exe)
 NPDir=0 NMtPBC=     1 NCelOv=     1 NCel=       1 NClECP=     1 NCelD=      1
         NCelK=      1 NCelE2=     1 NClLst=     1 CellRange=     0.0.
 One-electron integrals computed using PRISM.
 NBasis=   117 RedAO= T EigKep=  4.87D-04  NBF=   117
 NBsUse=   117 1.00D-06 EigRej= -1.00D+00 NBFU=   117
 Precomputing XC quadrature grid using
 IXCGrd= 4 IRadAn=           0 IRanWt=          -1 IRanGd=           0 AccXCQ= 0.00D+00.
 Generated NRdTot=       0 NPtTot=           0 NUsed=           0 NTot=          32
 NSgBfM=   117   117   117   117   117 MxSgAt=    13 MxSgA2=    13.
 Leave Link  302 at Thu Mar 19 17:17:21 2026, MaxMem=   536870912 cpu:         0.0
 (Enter C:\G09W\l303.exe)
 DipDrv:  MaxL=1.
 Leave Link  303 at Thu Mar 19 17:17:21 2026, MaxMem=   536870912 cpu:         0.0
 (Enter C:\G09W\l401.exe)
 Initial guess from the checkpoint file:  "phenol_rdkit.chk"
 B after Tr=     0.000000    0.000000    0.000000
         Rot=    1.000000    0.000000    0.000000    0.000205 Ang=   0.02 deg.
 Guess basis will be translated and rotated to current coordinates.
 JPrj=2 DoOrth=T DoCkMO=T.
 Leave Link  401 at Thu Mar 19 17:17:22 2026, MaxMem=   536870912 cpu:         0.0
 (Enter C:\G09W\l502.exe)
 Closed shell SCF:
 Using DIIS extrapolation, IDIIS=  1040.
 Integral symmetry usage will be decided dynamically.
 Keep R1 ints in memory in canonical form, NReq=24830210.
 IVT=       61204 IEndB=       61204 NGot=   536870912 MDV=   512980553
 LenX=   512980553 LenY=   512966423
 Requested convergence on RMS density matrix=1.00D-08 within 128 cycles.
 Requested convergence on MAX density matrix=1.00D-06.
 Requested convergence on             energy=1.00D-06.
 No special actions if energy rises.
 FoFCou: FMM=F IPFlag=           0 FMFlag=           0 FMFlg1=           0
         NFxFlg=           0 DoJE=F BraDBF=F KetDBF=F FulRan=T
         wScrn=  0.000000 ICntrl=     600 IOpCl=  0 I1Cent=           0 NGrid=           0
         NMat0=    1 NMatS0=   6903 NMatT0=    0 NMatD0=    1 NMtDS0=    0 NMtDT0=    0
 Symmetry not used in FoFCou.

 Cycle   1  Pass 1  IDiag  1:
 E= -307.464860590971    
 DIIS: error= 1.24D-04 at cycle   1 NSaved=   1.
 NSaved= 1 IEnMin= 1 EnMin= -307.464860590971     IErMin= 1 ErrMin= 1.24D-04
 ErrMax= 1.24D-04  0.00D+00 EMaxC= 1.00D-01 BMatC= 4.12D-06 BMatP= 4.12D-06
 IDIUse=3 WtCom= 9.99D-01 WtEn= 1.24D-03
 Coeff-Com:  0.100D+01
 Coeff-En:   0.100D+01
 Coeff:      0.100D+01
 Gap=     1.840 Goal=   None    Shift=    0.000
 RMSDP=3.99D-05 MaxDP=3.51D-04              OVMax= 1.12D-03

 Cycle   2  Pass 1  IDiag  1:
 E= -307.464866496687     Delta-E=       -0.000005905715 Rises=F Damp=F
 DIIS: error= 5.02D-05 at cycle   2 NSaved=   2.
 NSaved= 2 IEnMin= 2 EnMin= -307.464866496687     IErMin= 2 ErrMin= 5.02D-05
 ErrMax= 5.02D-05  0.00D+00 EMaxC= 1.00D-01 BMatC= 4.71D-07 BMatP= 4.12D-06
 IDIUse=1 WtCom= 1.00D+00 WtEn= 0.00D+00
 Coeff-Com:  0.130D+00 0.870D+00
 Coeff:      0.130D+00 0.870D+00
 Gap=     0.220 Goal=   None    Shift=    0.000
 RMSDP=1.27D-05 MaxDP=2.75D-04 DE=-5.91D-06 OVMax= 5.00D-04

 Cycle   3  Pass 1  IDiag  1:
 E= -307.464866325492     Delta-E=        0.000000171195 Rises=F Damp=F
 DIIS: error= 5.94D-05 at cycle   3 NSaved=   3.
 NSaved= 3 IEnMin= 2 EnMin= -307.464866496687     IErMin= 2 ErrMin= 5.02D-05
 ErrMax= 5.94D-05  0.00D+00 EMaxC= 1.00D-01 BMatC= 6.05D-07 BMatP= 4.71D-07
 IDIUse=1 WtCom= 1.00D+00 WtEn= 0.00D+00
 Coeff-Com:  0.123D-02 0.533D+00 0.466D+00
 Coeff:      0.123D-02 0.533D+00 0.466D+00
 Gap=     0.220 Goal=   None    Shift=    0.000
 RMSDP=7.99D-06 MaxDP=1.72D-04 DE= 1.71D-07 OVMax= 4.46D-04

 Cycle   4  Pass 1  IDiag  1:
 E= -307.464866947648     Delta-E=       -0.000000622156 Rises=F Damp=F
 DIIS: error= 1.69D-05 at cycle   4 NSaved=   4.
 NSaved= 4 IEnMin= 4 EnMin= -307.464866947648     IErMin= 4 ErrMin= 1.69D-05
 ErrMax= 1.69D-05  0.00D+00 EMaxC= 1.00D-01 BMatC= 3.06D-08 BMatP= 4.71D-07
 IDIUse=1 WtCom= 1.00D+00 WtEn= 0.00D+00
 Coeff-Com: -0.116D-01 0.196D+00 0.246D+00 0.569D+00
 Coeff:     -0.116D-01 0.196D+00 0.246D+00 0.569D+00
 Gap=     0.220 Goal=   None    Shift=    0.000
 RMSDP=1.93D-06 MaxDP=3.33D-05 DE=-6.22D-07 OVMax= 9.35D-05

 Cycle   5  Pass 1  IDiag  1:
[...]
   D19        0.00000   0.00000   0.00000   0.00000   0.00000   0.00000
   D20       -3.14159   0.00000   0.00000   0.00000   0.00000   3.14159
   D21       -3.14159   0.00000   0.00000   0.00000   0.00000   3.14159
   D22        0.00000   0.00000   0.00000   0.00000   0.00000   0.00000
   D23        0.00000   0.00000   0.00000   0.00000   0.00000   0.00000
   D24        3.14159   0.00000   0.00000   0.00000   0.00000  -3.14159
   D25        3.14159   0.00000   0.00000   0.00000   0.00000   3.14159
   D26        0.00000   0.00000   0.00000   0.00000   0.00000   0.00000
         Item               Value     Threshold  Converged?
 Maximum Force            0.000272     0.000450     YES
 RMS     Force            0.000086     0.000300     YES
 Maximum Displacement     0.001415     0.001800     YES
 RMS     Displacement     0.000366     0.001200     YES
 Predicted change in Energy=-7.195233D-07
 Optimization completed.
    -- Stationary point found.
                           ----------------------------
                           !   Optimized Parameters   !
                           ! (Angstroms and Degrees)  !
 --------------------------                            --------------------------
 ! Name  Definition              Value          Derivative Info.                !
 --------------------------------------------------------------------------------
 ! R1    R(1,2)                  1.3695         -DE/DX =   -0.0002              !
 ! R2    R(1,8)                  0.9696         -DE/DX =    0.0002              !
 ! R3    R(2,3)                  1.3992         -DE/DX =   -0.0003              !
 ! R4    R(2,7)                  1.3989         -DE/DX =    0.0002              !
 ! R5    R(3,4)                  1.3956         -DE/DX =    0.0002              !
 ! R6    R(3,9)                  1.0891         -DE/DX =   -0.0001              !
 ! R7    R(4,5)                  1.3954         -DE/DX =   -0.0002              !
 ! R8    R(4,10)                 1.0868         -DE/DX =    0.0001              !
 ! R9    R(5,6)                  1.3978         -DE/DX =    0.0001              !
 ! R10   R(5,11)                 1.086          -DE/DX =    0.0                 !
 ! R11   R(6,7)                  1.3932         -DE/DX =   -0.0002              !
 ! R12   R(6,12)                 1.0869         -DE/DX =    0.0                 !
 ! R13   R(7,13)                 1.0855         -DE/DX =    0.0                 !
 ! A1    A(2,1,8)              108.7874         -DE/DX =    0.0002              !
 ! A2    A(1,2,3)              122.6008         -DE/DX =   -0.0001              !
 ! A3    A(1,2,7)              117.3241         -DE/DX =    0.0                 !
 ! A4    A(3,2,7)              120.0751         -DE/DX =    0.0                 !
 ! A5    A(2,3,4)              119.7613         -DE/DX =    0.0                 !
 ! A6    A(2,3,9)              119.9482         -DE/DX =    0.0                 !
 ! A7    A(4,3,9)              120.2905         -DE/DX =    0.0                 !
 ! A8    A(3,4,5)              120.5327         -DE/DX =    0.0                 !
 ! A9    A(3,4,10)             119.2923         -DE/DX =    0.0                 !
 ! A10   A(5,4,10)             120.1749         -DE/DX =    0.0                 !
 ! A11   A(4,5,6)              119.2721         -DE/DX =    0.0                 !
 ! A12   A(4,5,11)             120.3276         -DE/DX =    0.0                 !
 ! A13   A(6,5,11)             120.4003         -DE/DX =    0.0                 !
 ! A14   A(5,6,7)              120.775          -DE/DX =    0.0                 !
 ! A15   A(5,6,12)             120.0051         -DE/DX =    0.0                 !
 ! A16   A(7,6,12)             119.2199         -DE/DX =    0.0001              !
 ! A17   A(2,7,6)              119.5838         -DE/DX =    0.0                 !
 ! A18   A(2,7,13)             118.9451         -DE/DX =   -0.0001              !
 ! A19   A(6,7,13)             121.4711         -DE/DX =    0.0001              !
 ! D1    D(8,1,2,3)              0.0            -DE/DX =    0.0                 !
 ! D2    D(8,1,2,7)            180.0            -DE/DX =    0.0                 !
 ! D3    D(1,2,3,4)           -180.0            -DE/DX =    0.0                 !
 ! D4    D(1,2,3,9)              0.0            -DE/DX =    0.0                 !
 ! D5    D(7,2,3,4)              0.0            -DE/DX =    0.0                 !
 ! D6    D(7,2,3,9)            180.0            -DE/DX =    0.0                 !
 ! D7    D(1,2,7,6)            180.0            -DE/DX =    0.0                 !
 ! D8    D(1,2,7,13)             0.0            -DE/DX =    0.0                 !
 ! D9    D(3,2,7,6)              0.0            -DE/DX =    0.0                 !
 ! D10   D(3,2,7,13)           180.0            -DE/DX =    0.0                 !
 ! D11   D(2,3,4,5)              0.0            -DE/DX =    0.0                 !
 ! D12   D(2,3,4,10)           180.0            -DE/DX =    0.0                 !
 ! D13   D(9,3,4,5)           -180.0            -DE/DX =    0.0                 !
 ! D14   D(9,3,4,10)             0.0            -DE/DX =    0.0                 !
 ! D15   D(3,4,5,6)              0.0            -DE/DX =    0.0                 !
 ! D16   D(3,4,5,11)           180.0            -DE/DX =    0.0                 !
 ! D17   D(10,4,5,6)          -180.0            -DE/DX =    0.0                 !
 ! D18   D(10,4,5,11)            0.0            -DE/DX =    0.0                 !
 ! D19   D(4,5,6,7)              0.0            -DE/DX =    0.0                 !
 ! D20   D(4,5,6,12)           180.0            -DE/DX =    0.0                 !
 ! D21   D(11,5,6,7)           180.0            -DE/DX =    0.0                 !
 ! D22   D(11,5,6,12)            0.0            -DE/DX =    0.0                 !
 ! D23   D(5,6,7,2)              0.0            -DE/DX =    0.0                 !
 ! D24   D(5,6,7,13)          -180.0            -DE/DX =    0.0                 !
 ! D25   D(12,6,7,2)           180.0            -DE/DX =    0.0                 !
 ! D26   D(12,6,7,13)            0.0            -DE/DX =    0.0                 !
 --------------------------------------------------------------------------------
 Lowest energy point so far.  Saving SCF results.
 GradGradGradGradGradGradGradGradGradGradGradGradGradGradGradGradGradGrad

 Largest change from initial coordinates is atom   13       0.034 Angstoms.
 Leave Link  103 at Thu Mar 19 17:17:37 2026, MaxMem=   536870912 cpu:         0.0
 (Enter C:\G09W\l202.exe)
                          Input orientation:                          
 ---------------------------------------------------------------------
 Center     Atomic      Atomic             Coordinates (Angstroms)
 Number     Number       Type             X           Y           Z
 ---------------------------------------------------------------------
      1          8           0        2.487440    0.219313   -0.196758
      2          6           0        1.126436    0.104304   -0.097558
      3          6           0        0.500642   -1.050437    0.384753
      4          6           0       -0.891881   -1.103481    0.460636
      5          6           0       -1.665714   -0.013904    0.059292
      6          6           0       -1.031095    1.135133   -0.421105
      7          6           0        0.358143    1.201178   -0.502012
      8          1           0        2.893876   -0.604413    0.113697
      9          1           0        1.100782   -1.903164    0.699069
     10          1           0       -1.369999   -2.004201    0.836453
     11          1           0       -2.749087   -0.058791    0.119763
     12          1           0       -1.622225    1.990754   -0.736923
     13          1           0        0.862682    2.087711   -0.873247
 ---------------------------------------------------------------------
                    Distance matrix (angstroms):
                    1          2          3          4          5
     1  O    0.000000
     2  C    1.369452   0.000000
     3  C    2.428536   1.399168   0.000000
     4  C    3.688057   2.417422   1.395598   0.000000
     5  C    4.167569   2.799049   2.423514   1.395375   0.000000
     6  C    3.642684   2.412930   2.787892   2.410030   1.397787
     7  C    2.364560   1.398925   2.424135   2.792974   2.426413
     8  H    0.969586   1.915921   2.449486   3.834240   4.597991
     9  H    2.688910   2.159908   1.089085   2.160335   3.410588
    10  H    4.570708   3.398582   2.147789   1.086798   2.157013
    11  H    5.253451   3.885037   3.407979   2.157959   1.085988
    12  H    4.507674   3.394498   3.874734   3.397328   2.157430
    13  H    2.566785   2.145964   3.400237   3.878330   3.417484
                    6          7          8          9         10
     6  C    0.000000
     7  C    1.393158   0.000000
     8  H    4.326365   3.173201   0.000000
     9  H    3.876976   3.410432   2.290110   0.000000
    10  H    3.398783   3.879744   4.545593   2.476659   0.000000
    11  H    2.160901   3.410133   5.669284   4.307992   2.490009
    12  H    1.086859   2.144871   5.277653   4.963813   4.301022
    13  H    2.167540   1.085503   3.513878   4.296039   4.965046
                   11         12         13
    11  H    0.000000
    12  H    2.490857   0.000000
    13  H    4.317224   2.490532   0.000000
 Stoichiometry    C6H6O
 Framework group  C1[X(C6H6O)]
 Deg. of freedom    33
 Full point group                 C1      NOp   1
 RotChk:  IX=2 Diff= 6.43D-10
 Largest Abelian subgroup         C1      NOp   1
 Largest concise Abelian subgroup C1      NOp   1
                         Standard orientation:                         
 ---------------------------------------------------------------------
 Center     Atomic      Atomic             Coordinates (Angstroms)
 Number     Number       Type             X           Y           Z
 ---------------------------------------------------------------------
      1          8           0        2.307667   -0.111761    0.000000
      2          6           0        0.940989   -0.024630    0.000000
      3          6           0        0.263664    1.199666    0.000000
      4          6           0       -1.131795    1.219354    0.000000
      5          6           0       -1.857573    0.027583    0.000000
      6          6           0       -1.171672   -1.190346    0.000000
      7          6           0        0.221077   -1.224095    0.000000
      8          1           0        2.677699    0.784439    0.000000
      9          1           0        0.826193    2.132225    0.000000
     10          1           0       -1.650104    2.174596    0.000000
     11          1           0       -2.943391    0.046790    0.000000
     12          1           0       -1.725059   -2.125774    0.000000
     13          1           0        0.765189   -2.163381    0.000000
 ---------------------------------------------------------------------
 Rotational constants (GHZ):      5.6464848      2.6123871      1.7860556
 Leave Link  202 at Thu Mar 19 17:17:38 2026, MaxMem=   536870912 cpu:         0.0
 (Enter C:\G09W\l601.exe)
 Copying SCF densities to generalized density rwf, IOpCl= 0 IROHF=0.

 **********************************************************************

            Population analysis using the SCF density.

 **********************************************************************

 Orbital symmetries:
       Occupied  (A) (A) (A) (A) (A) (A) (A) (A) (A) (A) (A) (A)
                 (A) (A) (A) (A) (A) (A) (A) (A) (A) (A) (A) (A)
                 (A)
       Virtual   (A) (A) (A) (A) (A) (A) (A) (A) (A) (A) (A) (A)
                 (A) (A) (A) (A) (A) (A) (A) (A) (A) (A) (A) (A)
                 (A) (A) (A) (A) (A) (A) (A) (A) (A) (A) (A) (A)
                 (A) (A) (A) (A) (A) (A) (A) (A) (A) (A) (A) (A)
                 (A) (A) (A) (A) (A) (A) (A) (A) (A) (A) (A) (A)
                 (A) (A) (A) (A) (A) (A) (A) (A) (A) (A) (A) (A)
                 (A) (A) (A) (A) (A) (A) (A) (A) (A) (A) (A) (A)
                 (A) (A) (A) (A) (A) (A) (A) (A)
 The electronic state is 1-A.
 Alpha  occ. eigenvalues --  -19.17733 -10.24768 -10.19089 -10.18888 -10.18841
 Alpha  occ. eigenvalues --  -10.18222 -10.18110  -1.05708  -0.84471  -0.74478
 Alpha  occ. eigenvalues --   -0.73340  -0.62067  -0.59818  -0.54048  -0.49534
 Alpha  occ. eigenvalues --   -0.46147  -0.43481  -0.42056  -0.40279  -0.38576
 Alpha  occ. eigenvalues --   -0.35816  -0.33713  -0.33064  -0.24894  -0.21898
 Alpha virt. eigenvalues --    0.00127   0.01701   0.06871   0.09358   0.14474
 Alpha virt. eigenvalues --    0.15667   0.16989   0.18894   0.18956   0.24352
 Alpha virt. eigenvalues --    0.30012   0.30558   0.34320   0.35412   0.48312
 Alpha virt. eigenvalues --    0.51559   0.52447   0.54903   0.56927   0.59610
 Alpha virt. eigenvalues --    0.59955   0.60481   0.61416   0.61831   0.62078
 Alpha virt. eigenvalues --    0.64311   0.66469   0.67532   0.75439   0.75796
 Alpha virt. eigenvalues --    0.83696   0.83760   0.85256   0.86635   0.89529
 Alpha virt. eigenvalues --    0.92810   0.93474   0.95623   0.95743   0.99010
 Alpha virt. eigenvalues --    1.04034   1.10018   1.11562   1.17398   1.20371
 Alpha virt. eigenvalues --    1.25047   1.26966   1.35930   1.37556   1.44516
 Alpha virt. eigenvalues --    1.44598   1.46902   1.49376   1.51437   1.67779
 Alpha virt. eigenvalues --    1.73427   1.77036   1.79216   1.85120   1.89851
 Alpha virt. eigenvalues --    1.92918   1.96836   1.97287   1.97831   2.07146
 Alpha virt. eigenvalues --    2.11739   2.13508   2.14908   2.24803   2.25450
 Alpha virt. eigenvalues --    2.31025   2.31217   2.40055   2.49545   2.53529
 Alpha virt. eigenvalues --    2.57006   2.64747   2.65900   2.71971   2.72483
 Alpha virt. eigenvalues --    2.74517   2.83382   2.94980   3.09934   3.41626
 Alpha virt. eigenvalues --    3.93454   4.08832   4.11682   4.17783   4.32961
 Alpha virt. eigenvalues --    4.40680   4.72658
          Condensed to atoms (all electrons):
               1          2          3          4          5          6
     1  O    8.227982   0.283150  -0.059360   0.004332   0.000268   0.002820
     2  C    0.283150   4.480853   0.505434  -0.003053  -0.040070  -0.013186
     3  C   -0.059360   0.505434   5.082923   0.504245  -0.041728  -0.038760
     4  C    0.004332  -0.003053   0.504245   4.853624   0.555877  -0.026514
     5  C    0.000268  -0.040070  -0.041728   0.555877   4.868930   0.544912
     6  C    0.002820  -0.013186  -0.038760  -0.026514   0.544912   4.844232
     7  C   -0.051295   0.544972  -0.073346  -0.036609  -0.037711   0.542878
     8  H    0.241913  -0.031615  -0.004344   0.000523  -0.000015  -0.000195
     9  H   -0.005696  -0.047392   0.345239  -0.036379   0.004707   0.000433
    10  H   -0.000056   0.003310  -0.038309   0.355258  -0.041506   0.004730
    11  H    0.000002   0.000707   0.004989  -0.043032   0.360176  -0.042906
    12  H   -0.000060   0.004508   0.000640   0.004921  -0.043491   0.358725
    13  H   -0.001389  -0.037420   0.006863   0.000064   0.004896  -0.042970
               7          8          9         10         11         12
     1  O   -0.051295   0.241913  -0.005696  -0.000056   0.000002  -0.000060
     2  C    0.544972  -0.031615  -0.047392   0.003310   0.000707   0.004508
     3  C   -0.073346  -0.004344   0.345239  -0.038309   0.004989   0.000640
     4  C   -0.036609   0.000523  -0.036379   0.355258  -0.043032   0.004921
     5  C   -0.037711  -0.000015   0.004707  -0.041506   0.360176  -0.043491
     6  C    0.542878  -0.000195   0.000433   0.004730  -0.042906   0.358725
     7  C    4.946712   0.006337   0.005245   0.000707   0.004528  -0.041796
     8  H    0.006337   0.373967   0.007428  -0.000016  -0.000001   0.000006
     9  H    0.005245   0.007428   0.616353  -0.006228  -0.000175   0.000014
    10  H    0.000707  -0.000016  -0.006228   0.597730  -0.005499  -0.000198
    11  H    0.004528  -0.000001  -0.000175  -0.005499   0.601103  -0.005557
    12  H   -0.041796   0.000006   0.000014  -0.000198  -0.005557   0.597892
    13  H    0.347742  -0.000319  -0.000176   0.000015  -0.000155  -0.006347
              13
     1  O   -0.001389
     2  C   -0.037420
     3  C    0.006863
     4  C    0.000064
     5  C    0.004896
     6  C   -0.042970
     7  C    0.347742
     8  H   -0.000319
     9  H   -0.000176
    10  H    0.000015
    11  H   -0.000155
    12  H   -0.006347
    13  H    0.590417
 Mulliken charges:
               1
     1  O   -0.642610
     2  C    0.349802
     3  C   -0.194485
     4  C   -0.133257
     5  C   -0.135247
     6  C   -0.134200
     7  C   -0.158363
     8  H    0.406331
     9  H    0.116629
    10  H    0.130062
    11  H    0.125819
    12  H    0.130741
    13  H    0.138779
 Sum of Mulliken charges =   0.00000
 Mulliken charges with hydrogens summed into heavy atoms:
               1
     1  O   -0.236279
     2  C    0.349802
     3  C   -0.077856
     4  C   -0.003196
     5  C   -0.009428
     6  C   -0.003459
     7  C   -0.019585
 Electronic spatial extent (au):  <R**2>=            665.6086
 Charge=              0.0000 electrons
 Dipole moment (field-independent basis, Debye):
    X=              0.0621    Y=              1.3535    Z=              0.0000  Tot=              1.3549
 Quadrupole moment (field-independent basis, Debye-Ang):
   XX=            -36.6563   YY=            -35.3013   ZZ=            -43.7467
   XY=              4.4119   XZ=              0.0000   YZ=              0.0000
 Traceless Quadrupole moment (field-independent basis, Debye-Ang):
   XX=              1.9118   YY=              3.2668   ZZ=             -5.1786
   XY=              4.4119   XZ=              0.0000   YZ=              0.0000
 Octapole moment (field-independent basis, Debye-Ang**2):
  XXX=              9.7021  YYY=              0.1621  ZZZ=              0.0000  XYY=              5.1399
  XXY=             12.6040  XXZ=              0.0000  XZZ=              5.5055  YZZ=             -0.0214
  YYZ=              0.0000  XYZ=              0.0000
 Hexadecapole moment (field-independent basis, Debye-Ang**3):
 XXXX=           -471.7217 YYYY=           -273.7521 ZZZZ=            -43.3606 XXXY=             36.3763
 XXXZ=              0.0000 YYYX=              2.7443 YYYZ=              0.0000 ZZZX=              0.0000
 ZZZY=              0.0000 XXYY=           -118.1701 XXZZ=            -99.5869 YYZZ=            -62.1858
 XXYZ=              0.0000 YYXZ=              0.0000 ZZXY=              0.5411
 N-N= 2.707221123188D+02 E-N=-1.256527969949D+03  KE= 3.045600705780D+02
 No NMR shielding tensors so no spin-rotation constants.
 Leave Link  601 at Thu Mar 19 17:17:38 2026, MaxMem=   536870912 cpu:         0.0
 (Enter C:\G09W\l9999.exe)
 1|1|UNPC-DESKTOP-GS7R1K3|FOpt|RB3LYP|6-31G(d)|C6H6O1|1172|19-Mar-2026|
 0||#p opt B3LYP/6-31G(d)||phenol [rdkit]||0,1|O,2.4874398772,0.2193131
 524,-0.1967575246|C,1.1264360509,0.1043042868,-0.0975576227|C,0.500641
 9416,-1.0504372646,0.3847531111|C,-0.8918812791,-1.1034811707,0.460636
 2202|C,-1.665713508,-0.0139041671,0.0592922822|C,-1.0310949235,1.13513
 3105,-0.4211052694|C,0.3581427328,1.2011780877,-0.5020117474|H,2.89387
 64468,-0.6044130021,0.1136968196|H,1.100781734,-1.9031641086,0.6990694
 791|H,-1.3699991127,-2.0042009013,0.8364530014|H,-2.7490873685,-0.0587
 914694,0.1197633797|H,-1.62222499,1.9907537457,-0.7369234703|H,0.86268
 23985,2.0877107058,-0.8732466598||Version=EM64W-G09RevD.01|State=1-A|H
 F=-307.464867|RMSD=7.261e-009|RMSF=1.641e-004|Dipole=0.0463605,-0.4943
 183,0.1940862|Quadrupole=1.6861946,1.425108,-3.1113026,-3.1502462,1.03
 04224,-1.9666199|PG=C01 [X(C6H6O1)]||@


 THE FIRST AND LAST THING REQUIRED OF GENIUS IS THE LOVE OF TRUTH.

                          -- GOETHE
 Job cpu time:       0 days  0 hours  0 minutes 57.0 seconds.
 File lengths (MBytes):  RWF=      9 Int=      0 D2E=      0 Chk=      2 Scr=      1
 Normal termination of Gaussian 09 at Thu Mar 19 17:17:38 2026.
