13
 energy: -18.451228668227 gnorm: 0.000101768924 xtb: 6.7.1 (edcfbbe)
O            0.74187139651787       -0.51073422092525        0.11412208490282
C           -0.04836535108865       -1.24557284302181       -1.67417866521875
C            1.96356004244292        1.18096639209627       -0.59673055351108
C           -0.41353877823593        1.03135010788743       -1.06492599972617
C           -0.20515299970767        1.13554808937638        1.23111748827186
C           -1.61792764202217       -0.58598338769217        0.03724465752701
C           -0.18314452004254       -1.18270245233443        1.80453936415507
H            1.03446332527299       -0.02391761428566       -1.19020618993948
H            0.57537354294975        1.93646999417826       -0.05626064236191
H            1.06409837254392        0.02454471971750        1.33951781486929
H           -1.34537190364528       -0.24989035922566       -1.54552245909455
H           -0.19638179361341       -1.51436902017731        0.05594329284516
H           -1.36948369137263        0.00428859440647        1.54533880728181
