 Entering Gaussian System, Link 0=C:\G09W\g09.exe
 Input=acrolein_ml.com
 Output=C:\workspace\delta_chem\data\raw\benchmark_new\acrolein\acrolein_ml.out
 Initial command:
 C:\G09W\l1.exe ".\Gau-18232.inp" "C:\workspace\delta_chem\data\raw\benchmark_new\acrolein\acrolein_ml.out" /scrdir=".\"
 Entering Link 1 = C:\G09W\l1.exe PID=     15852.
  
 Copyright (c) 1988,1990,1992,1993,1995,1998,2003,2009,2013,
            Gaussian, Inc.  All Rights Reserved.
  
 This is part of the Gaussian(R) 09 program.  It is based on
 the Gaussian(R) 03 system (copyright 2003, Gaussian, Inc.),
 the Gaussian(R) 98 system (copyright 1998, Gaussian, Inc.),
 the Gaussian(R) 94 system (copyright 1995, Gaussian, Inc.),
 the Gaussian 92(TM) system (copyright 1992, Gaussian, Inc.),
 the Gaussian 90(TM) system (copyright 1990, Gaussian, Inc.),
 the Gaussian 88(TM) system (copyright 1988, Gaussian, Inc.),
 the Gaussian 86(TM) system (copyright 1986, Carnegie Mellon
 University), and the Gaussian 82(TM) system (copyright 1983,
 Carnegie Mellon University). Gaussian is a federally registered
 trademark of Gaussian, Inc.
  
 This software contains proprietary and confidential information,
 including trade secrets, belonging to Gaussian, Inc.
  
 This software is provided under written license and may be
 used, copied, transmitted, or stored only in accord with that
 written license.
  
 The following legend is applicable only to US Government
 contracts under FAR:
  
                    RESTRICTED RIGHTS LEGEND
  
 Use, reproduction and disclosure by the US Government is
 subject to restrictions as set forth in subparagraphs (a)
 and (c) of the Commercial Computer Software - Restricted
 Rights clause in FAR 52.227-19.
  
 Gaussian, Inc.
 340 Quinnipiac St., Bldg. 40, Wallingford CT 06492
  
  
 ---------------------------------------------------------------
 Warning -- This program may not be used in any manner that
 competes with the business of Gaussian, Inc. or will provide
 assistance to any competitor of Gaussian, Inc.  The licensee
 of this program is prohibited from giving any competitor of
 Gaussian, Inc. access to this program.  By using this program,
 the user acknowledges that Gaussian, Inc. is engaged in the
 business of creating and licensing software in the field of
 computational chemistry and represents and warrants to the
 licensee that it is not a competitor of Gaussian, Inc. and that
 it will not use this program in any manner prohibited above.
 ---------------------------------------------------------------
  

 Cite this work as:
 Gaussian 09, Revision D.01,
 M. J. Frisch, G. W. Trucks, H. B. Schlegel, G. E. Scuseria, 
 M. A. Robb, J. R. Cheeseman, G. Scalmani, V. Barone, B. Mennucci, 
 G. A. Petersson, H. Nakatsuji, M. Caricato, X. Li, H. P. Hratchian, 
 A. F. Izmaylov, J. Bloino, G. Zheng, J. L. Sonnenberg, M. Hada, 
 M. Ehara, K. Toyota, R. Fukuda, J. Hasegawa, M. Ishida, T. Nakajima, 
 Y. Honda, O. Kitao, H. Nakai, T. Vreven, J. A. Montgomery, Jr., 
 J. E. Peralta, F. Ogliaro, M. Bearpark, J. J. Heyd, E. Brothers, 
 K. N. Kudin, V. N. Staroverov, T. Keith, R. Kobayashi, J. Normand, 
 K. Raghavachari, A. Rendell, J. C. Burant, S. S. Iyengar, J. Tomasi, 
 M. Cossi, N. Rega, J. M. Millam, M. Klene, J. E. Knox, J. B. Cross, 
 V. Bakken, C. Adamo, J. Jaramillo, R. Gomperts, R. E. Stratmann, 
 O. Yazyev, A. J. Austin, R. Cammi, C. Pomelli, J. W. Ochterski, 
 R. L. Martin, K. Morokuma, V. G. Zakrzewski, G. A. Voth, 
 P. Salvador, J. J. Dannenberg, S. Dapprich, A. D. Daniels, 
 O. Farkas, J. B. Foresman, J. V. Ortiz, J. Cioslowski, 
 and D. J. Fox, Gaussian, Inc., Wallingford CT, 2013.
 
 ******************************************
 Gaussian 09:  EM64W-G09RevD.01 13-Apr-2013
                20-Mar-2026 
 ******************************************
 %NProcShared=4
 Will use up to    4 processors via shared memory.
 %Mem=4GB
 %Chk=acrolein_ml.chk
 --------------------------
 #p opt freq B3LYP/6-31G(d)
 --------------------------
 1/14=-1,18=20,19=15,26=3,38=1/1,3;
 2/9=110,12=2,17=6,18=5,40=1/2;
 3/5=1,6=6,7=1,11=2,16=1,25=1,30=1,71=1,74=-5/1,2,3;
 4//1;
 5/5=2,38=5/2;
 6/7=2,8=2,9=2,10=2,28=1/1;
 7//1,2,3,16;
 1/14=-1,18=20,19=15,26=3/3(2);
 2/9=110/2;
 99//99;
 2/9=110/2;
 3/5=1,6=6,7=1,11=2,16=1,25=1,30=1,71=1,74=-5/1,2,3;
 4/5=5,16=3,69=1/1;
 5/5=2,38=5/2;
 7//1,2,3,16;
 1/14=-1,18=20,19=15,26=3/3(-5);
 2/9=110/2;
 6/7=2,8=2,9=2,10=2,19=2,28=1/1;
 99/9=1/99;
 Leave Link    1 at Fri Mar 20 17:38:18 2026, MaxMem=   536870912 cpu:         0.0
 (Enter C:\G09W\l101.exe)
 -----------
 acrolein ml
 -----------
 Symbolic Z-matrix:
 Charge =  0 Multiplicity = 1
 C                    -1.22422   0.05142  -0.01689 
 C                    -0.02031  -0.47407   0.20513 
 C                     1.21229   0.27751  -0.12532 
 O                     2.30691  -0.19181   0.07288 
 H                    -1.36088   1.04167  -0.44459 
 H                    -2.12112  -0.5116    0.23055 
 H                     0.12167  -1.46451   0.6329 
 H                     1.06655   1.28714  -0.56137 
 
 NAtoms=      8 NQM=        8 NQMF=       0 NMMI=      0 NMMIF=      0
                NMic=       0 NMicF=      0.
                    Isotopes and Nuclear Properties:
 (Nuclear quadrupole moments (NQMom) in fm**2, nuclear magnetic moments (NMagM)
  in nuclear magnetons)

  Atom         1           2           3           4           5           6           7           8
 IAtWgt=          12          12          12          16           1           1           1           1
 AtmWgt=  12.0000000  12.0000000  12.0000000  15.9949146   1.0078250   1.0078250   1.0078250   1.0078250
 NucSpn=           0           0           0           0           1           1           1           1
 AtZEff=   0.0000000   0.0000000   0.0000000   0.0000000   0.0000000   0.0000000   0.0000000   0.0000000
 NQMom=    0.0000000   0.0000000   0.0000000   0.0000000   0.0000000   0.0000000   0.0000000   0.0000000
 NMagM=    0.0000000   0.0000000   0.0000000   0.0000000   2.7928460   2.7928460   2.7928460   2.7928460
 AtZNuc=   6.0000000   6.0000000   6.0000000   8.0000000   1.0000000   1.0000000   1.0000000   1.0000000
 Leave Link  101 at Fri Mar 20 17:38:18 2026, MaxMem=   536870912 cpu:         0.0
 (Enter C:\G09W\l103.exe)

 GradGradGradGradGradGradGradGradGradGradGradGradGradGradGradGradGradGrad
 Berny optimization.
 Initialization pass.
                           ----------------------------
                           !    Initial Parameters    !
                           ! (Angstroms and Degrees)  !
 --------------------------                            --------------------------
 ! Name  Definition              Value          Derivative Info.                !
 --------------------------------------------------------------------------------
 ! R1    R(1,2)                  1.3322         estimate D2E/DX2                !
 ! R2    R(1,5)                  1.0873         estimate D2E/DX2                !
 ! R3    R(1,6)                  1.0875         estimate D2E/DX2                !
 ! R4    R(2,3)                  1.481          estimate D2E/DX2                !
 ! R5    R(2,7)                  1.0882         estimate D2E/DX2                !
 ! R6    R(3,4)                  1.2074         estimate D2E/DX2                !
 ! R7    R(3,8)                  1.1094         estimate D2E/DX2                !
 ! A1    A(2,1,5)              122.573          estimate D2E/DX2                !
 ! A2    A(2,1,6)              120.2099         estimate D2E/DX2                !
 ! A3    A(5,1,6)              117.2171         estimate D2E/DX2                !
 ! A4    A(1,2,3)              120.9813         estimate D2E/DX2                !
 ! A5    A(1,2,7)              122.8497         estimate D2E/DX2                !
 ! A6    A(3,2,7)              116.1691         estimate D2E/DX2                !
 ! A7    A(2,3,4)              121.3768         estimate D2E/DX2                !
 ! A8    A(2,3,8)              116.1175         estimate D2E/DX2                !
 ! A9    A(4,3,8)              122.5057         estimate D2E/DX2                !
 ! D1    D(5,1,2,3)              0.0            estimate D2E/DX2                !
 ! D2    D(5,1,2,7)            180.0            estimate D2E/DX2                !
 ! D3    D(6,1,2,3)            179.9999         estimate D2E/DX2                !
 ! D4    D(6,1,2,7)             -0.0001         estimate D2E/DX2                !
 ! D5    D(1,2,3,4)           -180.0            estimate D2E/DX2                !
 ! D6    D(1,2,3,8)             -0.0001         estimate D2E/DX2                !
 ! D7    D(7,2,3,4)              0.0            estimate D2E/DX2                !
 ! D8    D(7,2,3,8)            179.9999         estimate D2E/DX2                !
 --------------------------------------------------------------------------------
 Trust Radius=3.00D-01 FncErr=1.00D-07 GrdErr=1.00D-06
 Number of steps in this run=     34 maximum allowed number of steps=    100.
 GradGradGradGradGradGradGradGradGradGradGradGradGradGradGradGradGradGrad

 Leave Link  103 at Fri Mar 20 17:38:18 2026, MaxMem=   536870912 cpu:         0.0
 (Enter C:\G09W\l202.exe)
                          Input orientation:                          
 ---------------------------------------------------------------------
 Center     Atomic      Atomic             Coordinates (Angstroms)
 Number     Number       Type             X           Y           Z
 ---------------------------------------------------------------------
      1          6           0       -1.224221    0.051421   -0.016890
      2          6           0       -0.020309   -0.474065    0.205131
      3          6           0        1.212290    0.277506   -0.125324
      4          8           0        2.306905   -0.191809    0.072879
      5          1           0       -1.360877    1.041668   -0.444592
      6          1           0       -2.121119   -0.511603    0.230546
      7          1           0        0.121670   -1.464510    0.632896
      8          1           0        1.066554    1.287139   -0.561373
 ---------------------------------------------------------------------
                    Distance matrix (angstroms):
                    1          2          3          4          5
     1  C    0.000000
     2  C    1.332229   0.000000
     3  C    2.449379   1.481000   0.000000
     4  O    3.540631   2.347996   1.207362   0.000000
     5  H    1.087287   2.125255   2.703158   3.904083   0.000000
     6  H    1.087496   2.101299   3.443973   4.442356   1.856456
     7  H    2.128777   1.088174   2.190655   2.590104   3.104811
     8  H    2.659156   2.206952   1.109386   2.031756   2.442604
                    6          7          8
     6  H    0.000000
     7  H    2.469822   0.000000
     8  H    3.744845   3.144941   0.000000
 Stoichiometry    C3H4O
 Framework group  C1[X(C3H4O)]
 Deg. of freedom    18
 Full point group                 C1      NOp   1
 Largest Abelian subgroup         C1      NOp   1
 Largest concise Abelian subgroup C1      NOp   1
                         Standard orientation:                         
 ---------------------------------------------------------------------
 Center     Atomic      Atomic             Coordinates (Angstroms)
 Number     Number       Type             X           Y           Z
 ---------------------------------------------------------------------
      1          6           0        1.755918    0.135338    0.000000
      2          6           0        0.554546   -0.440457    0.000000
      3          6           0       -0.681703    0.375046    0.000000
      4          8           0       -1.774050   -0.139252    0.000000
      5          1           0        1.887774    1.214600   -0.000001
      6          1           0        2.655551   -0.475651    0.000002
      7          1           0        0.417368   -1.519950    0.000000
      8          1           0       -0.540861    1.475455    0.000001
 ---------------------------------------------------------------------
 Rotational constants (GHZ):     46.9100731      4.7040714      4.2753461
 Leave Link  202 at Fri Mar 20 17:38:18 2026, MaxMem=   536870912 cpu:         0.0
 (Enter C:\G09W\l301.exe)
 Standard basis: 6-31G(d) (6D, 7F)
 Ernie: Thresh=  0.10000D-02 Tol=  0.10000D-05 Strict=F.
 There are    68 symmetry adapted cartesian basis functions of A   symmetry.
 There are    68 symmetry adapted basis functions of A   symmetry.
    68 basis functions,   128 primitive gaussians,    68 cartesian basis functions
    15 alpha electrons       15 beta electrons
       nuclear repulsion energy       103.2163751180 Hartrees.
 IExCor=  402 DFT=T Ex+Corr=B3LYP ExCW=0 ScaHFX=  0.200000
 ScaDFX=  0.800000  0.720000  1.000000  0.810000 ScalE2=  1.000000  1.000000
 IRadAn=      0 IRanWt=     -1 IRanGd=            0 ICorTp=0 IEmpDi=  4
 NAtoms=    8 NActive=    8 NUniq=    8 SFac= 1.00D+00 NAtFMM=   60 NAOKFM=F Big=F
 Integral buffers will be    131072 words long.
 Raffenetti 2 integral format.
 Two-electron integral symmetry is turned on.
 Leave Link  301 at Fri Mar 20 17:38:19 2026, MaxMem=   536870912 cpu:         0.0
 (Enter C:\G09W\l302.exe)
 NPDir=0 NMtPBC=     1 NCelOv=     1 NCel=       1 NClECP=     1 NCelD=      1
         NCelK=      1 NCelE2=     1 NClLst=     1 CellRange=     0.0.
 One-electron integrals computed using PRISM.
 NBasis=    68 RedAO= T EigKep=  3.94D-03  NBF=    68
 NBsUse=    68 1.00D-06 EigRej= -1.00D+00 NBFU=    68
 Precomputing XC quadrature grid using
 IXCGrd= 4 IRadAn=           0 IRanWt=          -1 IRanGd=           0 AccXCQ= 0.00D+00.
 Generated NRdTot=       0 NPtTot=           0 NUsed=           0 NTot=          32
 NSgBfM=    68    68    68    68    68 MxSgAt=     8 MxSgA2=     8.
 Leave Link  302 at Fri Mar 20 17:38:19 2026, MaxMem=   536870912 cpu:         0.0
 (Enter C:\G09W\l303.exe)
 DipDrv:  MaxL=1.
 Leave Link  303 at Fri Mar 20 17:38:19 2026, MaxMem=   536870912 cpu:         0.0
 (Enter C:\G09W\l401.exe)
 ExpMin= 1.61D-01 ExpMax= 5.48D+03 ExpMxC= 8.25D+02 IAcc=1 IRadAn=         1 AccDes= 0.00D+00
 Harris functional with IExCor=  402 and IRadAn=       1 diagonalized for initial guess.
 HarFok:  IExCor=  402 AccDes= 0.00D+00 IRadAn=         1 IDoV= 1 UseB2=F ITyADJ=14
 ICtDFT=  3500011 ScaDFX=  1.000000  1.000000  1.000000  1.000000
 FoFCou: FMM=F IPFlag=           0 FMFlag=      100000 FMFlg1=           0
         NFxFlg=           0 DoJE=T BraDBF=F KetDBF=T FulRan=T
         wScrn=  0.000000 ICntrl=     500 IOpCl=  0 I1Cent=   200000004 NGrid=           0
         NMat0=    1 NMatS0=      1 NMatT0=    0 NMatD0=    1 NMtDS0=    0 NMtDT0=    0
 Petite list used in FoFCou.
 Harris En= -191.934958710346    
 JPrj=0 DoOrth=F DoCkMO=F.
 Leave Link  401 at Fri Mar 20 17:38:20 2026, MaxMem=   536870912 cpu:         0.0
 (Enter C:\G09W\l502.exe)
 Closed shell SCF:
 Using DIIS extrapolation, IDIIS=  1040.
 Integral symmetry usage will be decided dynamically.
 Keep R1 ints in memory in canonical form, NReq=3676111.
 IVT=       33346 IEndB=       33346 NGot=   536870912 MDV=   534084536
 LenX=   534084536 LenY=   534079471
 Requested convergence on RMS density matrix=1.00D-08 within 128 cycles.
 Requested convergence on MAX density matrix=1.00D-06.
 Requested convergence on             energy=1.00D-06.
 No special actions if energy rises.
 FoFCou: FMM=F IPFlag=           0 FMFlag=           0 FMFlg1=           0
         NFxFlg=           0 DoJE=F BraDBF=F KetDBF=F FulRan=T
         wScrn=  0.000000 ICntrl=     600 IOpCl=  0 I1Cent=           0 NGrid=           0
         NMat0=    1 NMatS0=   2346 NMatT0=    0 NMatD0=    1 NMtDS0=    0 NMtDT0=    0
 Symmetry not used in FoFCou.
 Integral accuracy reduced to 1.0D-05 until final iterations.

 Cycle   1  Pass 0  IDiag  1:
 E= -191.802805674075    
 DIIS: error= 3.66D-02 at cycle   1 NSaved=   1.
 NSaved= 1 IEnMin= 1 EnMin= -191.802805674075     IErMin= 1 ErrMin= 3.66D-02
 ErrMax= 3.66D-02  0.00D+00 EMaxC= 1.00D-01 BMatC= 1.15D-01 BMatP= 1.15D-01
 IDIUse=3 WtCom= 6.34D-01 WtEn= 3.66D-01
 Coeff-Com:  0.100D+01
 Coeff-En:   0.100D+01
 Coeff:      0.100D+01
 Gap=     0.153 Goal=   None    Shift=    0.000
 GapD=    0.153 DampG=1.000 DampE=0.500 DampFc=0.5000 IDamp=-1.
 Damping current iteration by 5.00D-01
 RMSDP=1.23D-02 MaxDP=1.77D-01              OVMax= 2.26D-01

 Cycle   2  Pass 0  IDiag  1:
 E= -191.836419404002     Delta-E=       -0.033613729927 Rises=F Damp=T
 DIIS: error= 1.34D-02 at cycle   2 NSaved=   2.
 NSaved= 2 IEnMin= 2 EnMin= -191.836419404002     IErMin= 2 ErrMin= 1.34D-02
 ErrMax= 1.34D-02  0.00D+00 EMaxC= 1.00D-01 BMatC= 1.84D-02 BMatP= 1.15D-01
 IDIUse=3 WtCom= 8.66D-01 WtEn= 1.34D-01
 Coeff-Com:  0.214D+00 0.786D+00
 Coeff-En:   0.304D+00 0.696D+00
 Coeff:      0.226D+00 0.774D+00
 Gap=     0.209 Goal=   None    Shift=    0.000
 RMSDP=3.52D-03 MaxDP=4.99D-02 DE=-3.36D-02 OVMax= 2.04D-01

 Cycle   3  Pass 0  IDiag  1:
 E= -191.895181229128     Delta-E=       -0.058761825126 Rises=F Damp=F
 DIIS: error= 1.42D-02 at cycle   3 NSaved=   3.
 NSaved= 3 IEnMin= 3 EnMin= -191.895181229128     IErMin= 2 ErrMin= 1.34D-02
 ErrMax= 1.42D-02  0.00D+00 EMaxC= 1.00D-01 BMatC= 1.75D-02 BMatP= 1.84D-02
 IDIUse=3 WtCom= 8.58D-01 WtEn= 1.42D-01
 Coeff-Com:  0.584D-01 0.488D+00 0.454D+00
 Coeff-En:   0.000D+00 0.000D+00 0.100D+01
 Coeff:      0.501D-01 0.419D+00 0.531D+00
 Gap=     0.186 Goal=   None    Shift=    0.000
 RMSDP=2.52D-03 MaxDP=4.14D-02 DE=-5.88D-02 OVMax= 7.06D-02

 Cycle   4  Pass 0  IDiag  1:
 E= -191.908243418705     Delta-E=       -0.013062189576 Rises=F Damp=F
 DIIS: error= 6.23D-03 at cycle   4 NSaved=   4.
 NSaved= 4 IEnMin= 4 EnMin= -191.908243418705     IErMin= 4 ErrMin= 6.23D-03
 ErrMax= 6.23D-03  0.00D+00 EMaxC= 1.00D-01 BMatC= 3.42D-03 BMatP= 1.75D-02
 IDIUse=3 WtCom= 9.38D-01 WtEn= 6.23D-02
 Coeff-Com:  0.158D-01 0.296D-01 0.301D+00 0.653D+00
 Coeff-En:   0.000D+00 0.000D+00 0.193D+00 0.807D+00
 Coeff:      0.148D-01 0.277D-01 0.294D+00 0.663D+00
 Gap=     0.197 Goal=   None    Shift=    0.000
 RMSDP=9.15D-04 MaxDP=1.69D-02 DE=-1.31D-02 OVMax= 2.66D-02

 Cycle   5  Pass 0  IDiag  1:
 E= -191.911106285779     Delta-E=       -0.002862867074 Rises=F Damp=F
 DIIS: error= 1.19D-03 at cycle   5 NSaved=   5.
 NSaved= 5 IEnMin= 5 EnMin= -191.911106285779     IErMin= 5 ErrMin= 1.19D-03
 ErrMax= 1.19D-03  0.00D+00 EMaxC= 1.00D-01 BMatC= 1.02D-04 BMatP= 3.42D-03
 IDIUse=3 WtCom= 9.88D-01 WtEn= 1.19D-02
 Coeff-Com:  0.632D-02-0.543D-02 0.142D+00 0.367D+00 0.490D+00
 Coeff-En:   0.000D+00 0.000D+00 0.000D+00 0.000D+00 0.100D+01
 Coeff:      0.624D-02-0.537D-02 0.141D+00 0.362D+00 0.496D+00
 Gap=     0.195 Goal=   None    Shift=    0.000
 RMSDP=1.83D-04 MaxDP=3.10D-03 DE=-2.86D-03 OVMax= 7.63D-03

 Cycle   6  Pass 0  IDiag  1:
 E= -191.911207239434     Delta-E=       -0.000100953655 Rises=F Damp=F
 DIIS: error= 3.24D-04 at cycle   6 NSaved=   6.
 NSaved= 6 IEnMin= 6 EnMin= -191.911207239434     IErMin= 6 ErrMin= 3.24D-04
 ErrMax= 3.24D-04  0.00D+00 EMaxC= 1.00D-01 BMatC= 1.02D-05 BMatP= 1.02D-04
 IDIUse=3 WtCom= 9.97D-01 WtEn= 3.24D-03
 Coeff-Com:  0.256D-02-0.552D-02 0.545D-01 0.144D+00 0.289D+00 0.515D+00
 Coeff-En:   0.000D+00 0.000D+00 0.000D+00 0.000D+00 0.449D-01 0.955D+00
 Coeff:      0.255D-02-0.550D-02 0.543D-01 0.144D+00 0.288D+00 0.517D+00
 Gap=     0.195 Goal=   None    Shift=    0.000
 RMSDP=4.94D-05 MaxDP=9.37D-04 DE=-1.01D-04 OVMax= 2.14D-03

 Cycle   7  Pass 0  IDiag  1:
 E= -191.911217616584     Delta-E=       -0.000010377150 Rises=F Damp=F
 DIIS: error= 9.19D-05 at cycle   7 NSaved=   7.
 NSaved= 7 IEnMin= 7 EnMin= -191.911217616584     IErMin= 7 ErrMin= 9.19D-05
 ErrMax= 9.19D-05  0.00D+00 EMaxC= 1.00D-01 BMatC= 7.11D-07 BMatP= 1.02D-05
 IDIUse=1 WtCom= 1.00D+00 WtEn= 0.00D+00
 Coeff-Com:  0.583D-03-0.226D-02 0.883D-02 0.228D-01 0.845D-01 0.260D+00
 Coeff-Com:  0.625D+00
 Coeff:      0.583D-03-0.226D-02 0.883D-02 0.228D-01 0.845D-01 0.260D+00
 Coeff:      0.625D+00
 Gap=     0.195 Goal=   None    Shift=    0.000
 RMSDP=1.27D-05 MaxDP=2.13D-04 DE=-1.04D-05 OVMax= 2.75D-04

 Cycle   8  Pass 0  IDiag  1:
 E= -191.911218279621     Delta-E=       -0.000000663038 Rises=F Damp=F
 DIIS: error= 5.94D-06 at cycle   8 NSaved=   8.
 NSaved= 8 IEnMin= 8 EnMin= -191.911218279621     IErMin= 8 ErrMin= 5.94D-06
 ErrMax= 5.94D-06  0.00D+00 EMaxC= 1.00D-01 BMatC= 3.77D-09 BMatP= 7.11D-07
 IDIUse=1 WtCom= 1.00D+00 WtEn= 0.00D+00
 Coeff-Com:  0.152D-04-0.157D-03-0.530D-03-0.187D-02 0.253D-02 0.183D-01
 Coeff-Com:  0.899D-01 0.892D+00
 Coeff:      0.152D-04-0.157D-03-0.530D-03-0.187D-02 0.253D-02 0.183D-01
 Coeff:      0.899D-01 0.892D+00
 Gap=     0.195 Goal=   None    Shift=    0.000
 RMSDP=1.16D-06 MaxDP=1.19D-05 DE=-6.63D-07 OVMax= 2.53D-05

 Initial convergence to 1.0D-05 achieved.  Increase integral accuracy.
 Cycle   9  Pass 1  IDiag  1:
 E= -191.911217190499     Delta-E=        0.000001089123 Rises=F Damp=F
 DIIS: error= 5.93D-06 at cycle   1 NSaved=   1.
 NSaved= 1 IEnMin= 1 EnMin= -191.911217190499     IErMin= 1 ErrMin= 5.93D-06
 ErrMax= 5.93D-06  0.00D+00 EMaxC= 1.00D-01 BMatC= 3.03D-09 BMatP= 3.03D-09
 IDIUse=1 WtCom= 1.00D+00 WtEn= 0.00D+00
 Coeff-Com:  0.100D+01
 Coeff:      0.100D+01
 Gap=     0.195 Goal=   None    Shift=    0.000
 RMSDP=1.16D-06 MaxDP=1.19D-05 DE= 1.09D-06 OVMax= 1.96D-05

 Cycle  10  Pass 1  IDiag  1:
 E= -191.911217194207     Delta-E=       -0.000000003708 Rises=F Damp=F
 DIIS: error= 2.80D-06 at cycle   2 NSaved=   2.
 NSaved= 2 IEnMin= 2 EnMin= -191.911217194207     IErMin= 2 ErrMin= 2.80D-06
 ErrMax= 2.80D-06  0.00D+00 EMaxC= 1.00D-01 BMatC= 5.58D-10 BMatP= 3.03D-09
 IDIUse=1 WtCom= 1.00D+00 WtEn= 0.00D+00
 Coeff-Com:  0.189D+00 0.811D+00
 Coeff:      0.189D+00 0.811D+00
 Gap=     0.195 Goal=   None    Shift=    0.000
 RMSDP=8.16D-07 MaxDP=1.57D-05 DE=-3.71D-09 OVMax= 2.28D-05

 Cycle  11  Pass 1  IDiag  1:
 E= -191.911217193483     Delta-E=        0.000000000725 Rises=F Damp=F
 DIIS: error= 4.47D-06 at cycle   3 NSaved=   3.
 NSaved= 3 IEnMin= 2 EnMin= -191.911217194207     IErMin= 2 ErrMin= 2.80D-06
 ErrMax= 4.47D-06  0.00D+00 EMaxC= 1.00D-01 BMatC= 1.47D-09 BMatP= 5.58D-10
 IDIUse=1 WtCom= 1.00D+00 WtEn= 0.00D+00
 Coeff-Com: -0.244D-01 0.632D+00 0.393D+00
 Coeff:     -0.244D-01 0.632D+00 0.393D+00
 Gap=     0.195 Goal=   None    Shift=    0.000
 RMSDP=5.07D-07 MaxDP=9.73D-06 DE= 7.25D-10 OVMax= 1.36D-05

 Cycle  12  Pass 1  IDiag  1:
 E= -191.911217194671     Delta-E=       -0.000000001188 Rises=F Damp=F
 DIIS: error= 1.95D-07 at cycle   4 NSaved=   4.
 NSaved= 4 IEnMin= 4 EnMin= -191.911217194671     IErMin= 4 ErrMin= 1.95D-07
 ErrMax= 1.95D-07  0.00D+00 EMaxC= 1.00D-01 BMatC= 4.11D-12 BMatP= 5.58D-10
 IDIUse=1 WtCom= 1.00D+00 WtEn= 0.00D+00
 Coeff-Com: -0.125D-01 0.195D+00 0.137D+00 0.681D+00
 Coeff:     -0.125D-01 0.195D+00 0.137D+00 0.681D+00
 Gap=     0.195 Goal=   None    Shift=    0.000
 RMSDP=3.36D-08 MaxDP=4.83D-07 DE=-1.19D-09 OVMax= 7.00D-07

 Cycle  13  Pass 1  IDiag  1:
 E= -191.911217194675     Delta-E=       -0.000000000004 Rises=F Damp=F
 DIIS: error= 6.90D-08 at cycle   5 NSaved=   5.
 NSaved= 5 IEnMin= 5 EnMin= -191.911217194675     IErMin= 5 ErrMin= 6.90D-08
 ErrMax= 6.90D-08  0.00D+00 EMaxC= 1.00D-01 BMatC= 3.84D-13 BMatP= 4.11D-12
 IDIUse=1 WtCom= 1.00D+00 WtEn= 0.00D+00
 Coeff-Com: -0.482D-02 0.663D-01 0.496D-01 0.316D+00 0.573D+00
 Coeff:     -0.482D-02 0.663D-01 0.496D-01 0.316D+00 0.573D+00
 Gap=     0.195 Goal=   None    Shift=    0.000
 RMSDP=1.16D-08 MaxDP=2.00D-07 DE=-4.49D-12 OVMax= 4.62D-07

 Cycle  14  Pass 1  IDiag  1:
 E= -191.911217194675     Delta-E=        0.000000000000 Rises=F Damp=F
 DIIS: error= 3.09D-08 at cycle   6 NSaved=   6.
 NSaved= 6 IEnMin= 5 EnMin= -191.911217194675     IErMin= 6 ErrMin= 3.09D-08
 ErrMax= 3.09D-08  0.00D+00 EMaxC= 1.00D-01 BMatC= 7.49D-14 BMatP= 3.84D-13
 IDIUse=1 WtCom= 1.00D+00 WtEn= 0.00D+00
 Coeff-Com: -0.975D-03 0.989D-02 0.858D-02 0.849D-01 0.332D+00 0.565D+00
 Coeff:     -0.975D-03 0.989D-02 0.858D-02 0.849D-01 0.332D+00 0.565D+00
 Gap=     0.195 Goal=   None    Shift=    0.000
 RMSDP=4.11D-09 MaxDP=8.93D-08 DE= 4.55D-13 OVMax= 1.77D-07

 SCF Done:  E(RB3LYP) =  -191.911217195     A.U. after   14 cycles
            NFock= 14  Conv=0.41D-08     -V/T= 2.0091
 KE= 1.901818390797D+02 PE=-6.538691370121D+02 EE= 1.685597056197D+02
 Leave Link  502 at Fri Mar 20 17:38:23 2026, MaxMem=   536870912 cpu:         3.0
 (Enter C:\G09W\l601.exe)
 Copying SCF densities to generalized density rwf, IOpCl= 0 IROHF=0.

 **********************************************************************

            Population analysis using the SCF density.

 **********************************************************************

 Orbital symmetries:
       Occupied  (A) (A) (A) (A) (A) (A) (A) (A) (A) (A) (A) (A)
                 (A) (A) (A)
       Virtual   (A) (A) (A) (A) (A) (A) (A) (A) (A) (A) (A) (A)
                 (A) (A) (A) (A) (A) (A) (A) (A) (A) (A) (A) (A)
                 (A) (A) (A) (A) (A) (A) (A) (A) (A) (A) (A) (A)
                 (A) (A) (A) (A) (A) (A) (A) (A) (A) (A) (A) (A)
                 (A) (A) (A) (A) (A)
 The electronic state is 1-A.
 Alpha  occ. eigenvalues --  -19.14719 -10.27676 -10.21808 -10.20830  -1.04715
 Alpha  occ. eigenvalues --   -0.80178  -0.64619  -0.57570  -0.48074  -0.47296
 Alpha  occ. eigenvalues --   -0.41946  -0.39981  -0.39463  -0.29247  -0.25662
 Alpha virt. eigenvalues --   -0.06116   0.05799   0.10684   0.11127   0.15010
 Alpha virt. eigenvalues --    0.19029   0.26139   0.31601   0.34981   0.50411
 Alpha virt. eigenvalues --    0.51354   0.55667   0.58187   0.61844   0.63411
 Alpha virt. eigenvalues --    0.66406   0.68745   0.80477   0.82257   0.84956
 Alpha virt. eigenvalues --    0.86626   0.90414   0.94514   0.98394   1.05583
 Alpha virt. eigenvalues --    1.08959   1.15064   1.26604   1.32827   1.43889
 Alpha virt. eigenvalues --    1.54497   1.54649   1.65261   1.76163   1.79090
 Alpha virt. eigenvalues --    1.84163   1.90458   1.98692   2.05495   2.14141
 Alpha virt. eigenvalues --    2.16443   2.30884   2.40925   2.41496   2.58818
 Alpha virt. eigenvalues --    2.61765   2.85893   2.93698   3.00997   3.84354
 Alpha virt. eigenvalues --    4.06078   4.14790   4.37203
          Condensed to atoms (all electrons):
               1          2          3          4          5          6
     1  C    5.097525   0.527086  -0.010835   0.005138   0.372745   0.361285
     2  C    0.527086   5.103072   0.364199  -0.066147  -0.042116  -0.017935
     3  C   -0.010835   0.364199   4.571558   0.539198  -0.008305   0.002941
     4  O    0.005138  -0.066147   0.539198   7.970746   0.000107  -0.000092
     5  H    0.372745  -0.042116  -0.008305   0.000107   0.539657  -0.038203
     6  H    0.361285  -0.017935   0.002941  -0.000092  -0.038203   0.533713
     7  H   -0.043251   0.357064  -0.031995   0.001703   0.004867  -0.005930
     8  H    0.011963  -0.120879   0.341579  -0.052121   0.008756  -0.000287
               7          8
     1  C   -0.043251   0.011963
     2  C    0.357064  -0.120879
     3  C   -0.031995   0.341579
     4  O    0.001703  -0.052121
     5  H    0.004867   0.008756
     6  H   -0.005930  -0.000287
     7  H    0.552772   0.005222
     8  H    0.005222   0.699447
 Mulliken charges:
               1
     1  C   -0.321655
     2  C   -0.104344
     3  C    0.231661
     4  O   -0.398532
     5  H    0.162492
     6  H    0.164509
     7  H    0.159548
     8  H    0.106321
 Sum of Mulliken charges =   0.00000
 Mulliken charges with hydrogens summed into heavy atoms:
               1
     1  C    0.005346
     2  C    0.055204
     3  C    0.337982
     4  O   -0.398532
 Electronic spatial extent (au):  <R**2>=            295.8006
 Charge=              0.0000 electrons
 Dipole moment (field-independent basis, Debye):
    X=              2.9651    Y=              0.6489    Z=              0.0000  Tot=              3.0353
 Quadrupole moment (field-independent basis, Debye-Ang):
   XX=            -26.3327   YY=            -21.3165   ZZ=            -24.2912
   XY=             -0.8426   XZ=              0.0000   YZ=              0.0000
 Traceless Quadrupole moment (field-independent basis, Debye-Ang):
   XX=             -2.3525   YY=              2.6636   ZZ=             -0.3111
   XY=             -0.8426   XZ=              0.0000   YZ=              0.0000
 Octapole moment (field-independent basis, Debye-Ang**2):
  XXX=             10.8672  YYY=             -0.6949  ZZZ=              0.0000  XYY=             -0.5101
  XXY=              0.5929  XXZ=              0.0000  XZZ=             -4.3673  YZZ=             -0.0307
  YYZ=              0.0000  XYZ=              0.0000
 Hexadecapole moment (field-independent basis, Debye-Ang**3):
 XXXX=           -290.8255 YYYY=            -55.0298 ZZZZ=            -22.5888 XXXY=             -2.5378
 XXXZ=              0.0000 YYYX=              1.0480 YYYZ=              0.0000 ZZZX=              0.0000
 ZZZY=              0.0000 XXYY=            -55.3368 XXZZ=            -53.6096 YYZZ=            -14.2836
 XXYZ=              0.0000 YYXZ=              0.0000 ZZXY=              0.4450
 N-N= 1.032163751180D+02 E-N=-6.538691372627D+02  KE= 1.901818390797D+02
 No NMR shielding tensors so no spin-rotation constants.
 Leave Link  601 at Fri Mar 20 17:38:24 2026, MaxMem=   536870912 cpu:         0.0
 (Enter C:\G09W\l701.exe)
 Compute integral first derivatives.
 ... and contract with generalized density number  0.
 Leave Link  701 at Fri Mar 20 17:38:24 2026, MaxMem=   536870912 cpu:         0.0
 (Enter C:\G09W\l702.exe)
 L702 exits ... SP integral derivatives will be done elsewhere.
 Leave Link  702 at Fri Mar 20 17:38:25 2026, MaxMem=   536870912 cpu:         0.0
 (Enter C:\G09W\l703.exe)
 Compute integral first derivatives, UseDBF=F ICtDFT=           0.
 Integral derivatives from FoFJK, PRISM(SPDF).
 Calling FoFJK, ICntrl=      2127 FMM=F ISym2X=0 I1Cent= 0 IOpClX= 0 NMat=1 NMatS=1 NMatT=0.
 FoFJK:  IHMeth= 1 ICntrl=    2127 DoSepK=F KAlg= 0 I1Cent=   0 FoldK=F
 IRaf=         0 NMat=   1 IRICut=       1 DoRegI=T DoRafI=F ISym2E= 0.
 FoFCou: FMM=F IPFlag=           0 FMFlag=      100000 FMFlg1=         800
         NFxFlg=           0 DoJE=F BraDBF=F KetDBF=F FulRan=T
         wScrn=  0.000000 ICntrl=    2127 IOpCl=  0 I1Cent=           0 NGrid=           0
         NMat0=    1 NMatS0=      1 NMatT0=    0 NMatD0=    1 NMtDS0=    0 NMtDT0=    0
 Symmetry not used in FoFCou.
 Leave Link  703 at Fri Mar 20 17:38:26 2026, MaxMem=   536870912 cpu:         1.0
 (Enter C:\G09W\l716.exe)
 Dipole        = 1.16656063D+00 2.55282920D-01 1.02427596D-07
 ***** Axes restored to original set *****
 -------------------------------------------------------------------
 Center     Atomic                   Forces (Hartrees/Bohr)
 Number     Number              X              Y              Z
 -------------------------------------------------------------------
      1        6          -0.008313337   -0.004409541    0.001943455
      2        6           0.005343719    0.006792161   -0.002961013
      3        6          -0.013086080   -0.008640993    0.003794463
      4        8           0.017086101    0.000339560   -0.000221496
      5        1           0.000780021    0.000360919   -0.000159531
      6        1          -0.001500908    0.002753319   -0.001184232
      7        1          -0.000035451    0.000865291   -0.000374130
      8        1          -0.000274065    0.001939285   -0.000837516
 -------------------------------------------------------------------
 Cartesian Forces:  Max     0.017086101 RMS     0.005573844
 Leave Link  716 at Fri Mar 20 17:38:26 2026, MaxMem=   536870912 cpu:         0.0
 (Enter C:\G09W\l103.exe)

 GradGradGradGradGradGradGradGradGradGradGradGradGradGradGradGradGradGrad
 Berny optimization.
 FormGI is forming the generalized inverse of G from B-inverse, IUseBI=4.
 Internal  Forces:  Max     0.015322220 RMS     0.004793311
 Search for a local minimum.
 Step number   1 out of a maximum of   34
 All quantities printed in internal units (Hartrees-Bohrs-Radians)
 RMS Force = .47933D-02 SwitMx=.10000D-02 MixMth= 1
 Mixed Optimization -- RFO/linear search
 Second derivative matrix not updated -- first step.
 ITU=  0
     Eigenvalues ---    0.01017   0.01017   0.02066   0.02985   0.02985
     Eigenvalues ---    0.16000   0.16000   0.16000   0.16000   0.22000
     Eigenvalues ---    0.22000   0.32665   0.34455   0.35025   0.35104
     Eigenvalues ---    0.35128   0.58982   1.01209
 RFO step:  Lambda=-1.55843636D-03 EMin= 1.01728651D-02
 Linear search not attempted -- first point.
 Iteration  1 RMS(Cart)=  0.02399908 RMS(Int)=  0.00046478
 Iteration  2 RMS(Cart)=  0.00045761 RMS(Int)=  0.00000009
 Iteration  3 RMS(Cart)=  0.00000012 RMS(Int)=  0.00000000
 ITry= 1 IFail=0 DXMaxC= 6.50D-02 DCOld= 1.00D+10 DXMaxT= 3.00D-01 DXLimC= 3.00D+00 Rises=F
 Variable       Old X    -DE/DX   Delta X   Delta X   Delta X     New X
                                 (Linear)    (Quad)   (Total)
    R1        2.51755   0.00755   0.00000   0.01277   0.01277   2.53032
    R2        2.05467   0.00029   0.00000   0.00083   0.00083   2.05551
    R3        2.05507  -0.00046   0.00000  -0.00130  -0.00130   2.05377
    R4        2.79868  -0.00074   0.00000  -0.00213  -0.00213   2.79655
    R5        2.05635  -0.00094   0.00000  -0.00267  -0.00267   2.05368
    R6        2.28158   0.01532   0.00000   0.01512   0.01512   2.29670
    R7        2.09644   0.00213   0.00000   0.00649   0.00649   2.10293
    A1        2.13930  -0.00340   0.00000  -0.02106  -0.02106   2.11824
    A2        2.09806   0.00511   0.00000   0.03165   0.03165   2.12971
    A3        2.04582  -0.00171   0.00000  -0.01059  -0.01059   2.03523
    A4        2.11152   0.00304   0.00000   0.01372   0.01372   2.12524
    A5        2.14413  -0.00143   0.00000  -0.00630  -0.00630   2.13783
    A6        2.02753  -0.00161   0.00000  -0.00742  -0.00742   2.02012
    A7        2.11842   0.01151   0.00000   0.05196   0.05196   2.17039
    A8        2.02663  -0.00575   0.00000  -0.02594  -0.02594   2.00069
    A9        2.13813  -0.00576   0.00000  -0.02602  -0.02602   2.11211
    D1        0.00000   0.00000   0.00000   0.00000   0.00000   0.00000
    D2        3.14159   0.00000   0.00000   0.00000   0.00000   3.14159
    D3        3.14159   0.00000   0.00000   0.00000   0.00000   3.14159
    D4        0.00000   0.00000   0.00000   0.00000   0.00000   0.00000
    D5       -3.14159   0.00000   0.00000   0.00000   0.00000   3.14159
    D6        0.00000   0.00000   0.00000   0.00000   0.00000   0.00000
    D7        0.00000   0.00000   0.00000   0.00000   0.00000   0.00000
    D8        3.14159   0.00000   0.00000   0.00001   0.00001  -3.14159
         Item               Value     Threshold  Converged?
 Maximum Force            0.015322     0.000450     NO 
 RMS     Force            0.004793     0.000300     NO 
 Maximum Displacement     0.064962     0.001800     NO 
 RMS     Displacement     0.023977     0.001200     NO 
 Predicted change in Energy=-7.841569D-04
 Lowest energy point so far.  Saving SCF results.
 GradGradGradGradGradGradGradGradGradGradGradGradGradGradGradGradGradGrad

 Leave Link  103 at Fri Mar 20 17:38:26 2026, MaxMem=   536870912 cpu:         0.0
 (Enter C:\G09W\l202.exe)
                          Input orientation:                          
 ---------------------------------------------------------------------
 Center     Atomic      Atomic             Coordinates (Angstroms)
 Number     Number       Type             X           Y           Z
 ---------------------------------------------------------------------
      1          6           0       -1.233259    0.045603   -0.014335
      2          6           0       -0.020645   -0.477499    0.206617
      3          6           0        1.218486    0.263088   -0.119118
      4          8           0        2.341282   -0.165674    0.061426
      5          1           0       -1.352130    1.038159   -0.443114
      6          1           0       -2.145919   -0.494535    0.223275
      7          1           0        0.119260   -1.466881    0.633932
      8          1           0        1.053818    1.273485   -0.555410
 ---------------------------------------------------------------------
                    Distance matrix (angstroms):
                    1          2          3          4          5
     1  C    0.000000
     2  C    1.338987   0.000000
     3  C    2.463602   1.479871   0.000000
     4  O    3.581580   2.386842   1.215361   0.000000
     5  H    1.087727   2.119486   2.704400   3.917278   0.000000
     6  H    1.086810   2.125407   3.465609   4.502145   1.850223
     7  H    2.130062   1.086761   2.183615   2.637856   3.098426
     8  H    2.651637   2.191141   1.112820   2.027123   2.420037
                    6          7          8
     6  H    0.000000
     7  H    2.499026   0.000000
     8  H    3.737722   3.130102   0.000000
 Stoichiometry    C3H4O
 Framework group  C1[X(C3H4O)]
 Deg. of freedom    18
 Full point group                 C1      NOp   1
 RotChk:  IX=2 Diff= 9.47D-03
 Largest Abelian subgroup         C1      NOp   1
 Largest concise Abelian subgroup C1      NOp   1
                         Standard orientation:                         
 ---------------------------------------------------------------------
 Center     Atomic      Atomic             Coordinates (Angstroms)
 Number     Number       Type             X           Y           Z
 ---------------------------------------------------------------------
      1          6           0        1.771598    0.138562    0.000000
      2          6           0        0.565378   -0.442747    0.000000
      3          6           0       -0.682703    0.352434    0.000002
      4          8           0       -1.800253   -0.125253   -0.000001
      5          1           0        1.878414    1.221032    0.000000
      6          1           0        2.690785   -0.441310   -0.000001
      7          1           0        0.437491   -1.521957    0.000000
      8          1           0       -0.530309    1.454769   -0.000002
 ---------------------------------------------------------------------
 Rotational constants (GHZ):     48.2197349      4.5981542      4.1978538
 Leave Link  202 at Fri Mar 20 17:38:26 2026, MaxMem=   536870912 cpu:         0.0
 (Enter C:\G09W\l301.exe)
 Standard basis: 6-31G(d) (6D, 7F)
 Ernie: Thresh=  0.10000D-02 Tol=  0.10000D-05 Strict=F.
 There are    68 symmetry adapted cartesian basis functions of A   symmetry.
 There are    68 symmetry adapted basis functions of A   symmetry.
    68 basis functions,   128 primitive gaussians,    68 cartesian basis functions
    15 alpha electrons       15 beta electrons
       nuclear repulsion energy       102.6671086906 Hartrees.
 IExCor=  402 DFT=T Ex+Corr=B3LYP ExCW=0 ScaHFX=  0.200000
 ScaDFX=  0.800000  0.720000  1.000000  0.810000 ScalE2=  1.000000  1.000000
 IRadAn=      0 IRanWt=     -1 IRanGd=            0 ICorTp=0 IEmpDi=  4
 NAtoms=    8 NActive=    8 NUniq=    8 SFac= 1.00D+00 NAtFMM=   60 NAOKFM=F Big=F
 Integral buffers will be    131072 words long.
 Raffenetti 2 integral format.
 Two-electron integral symmetry is turned on.
 Leave Link  301 at Fri Mar 20 17:38:27 2026, MaxMem=   536870912 cpu:         0.0
 (Enter C:\G09W\l302.exe)
 NPDir=0 NMtPBC=     1 NCelOv=     1 NCel=       1 NClECP=     1 NCelD=      1
         NCelK=      1 NCelE2=     1 NClLst=     1 CellRange=     0.0.
 One-electron integrals computed using PRISM.
 NBasis=    68 RedAO= T EigKep=  4.10D-03  NBF=    68
 NBsUse=    68 1.00D-06 EigRej= -1.00D+00 NBFU=    68
 Precomputing XC quadrature grid using
 IXCGrd= 4 IRadAn=           0 IRanWt=          -1 IRanGd=           0 AccXCQ= 0.00D+00.
 Generated NRdTot=       0 NPtTot=           0 NUsed=           0 NTot=          32
 NSgBfM=    68    68    68    68    68 MxSgAt=     8 MxSgA2=     8.
 Leave Link  302 at Fri Mar 20 17:38:27 2026, MaxMem=   536870912 cpu:         0.0
 (Enter C:\G09W\l303.exe)
 DipDrv:  MaxL=1.
 Leave Link  303 at Fri Mar 20 17:38:27 2026, MaxMem=   536870912 cpu:         0.0
 (Enter C:\G09W\l401.exe)
 Initial guess from the checkpoint file:  "acrolein_ml.chk"
 B after Tr=     0.000000    0.000000    0.000000
         Rot=    1.000000    0.000000    0.000000   -0.000482 Ang=  -0.06 deg.
 Guess basis will be translated and rotated to current coordinates.
 JPrj=2 DoOrth=T DoCkMO=T.
 Generating alternative initial guess.
 ExpMin= 1.61D-01 ExpMax= 5.48D+03 ExpMxC= 8.25D+02 IAcc=1 IRadAn=         1 AccDes= 0.00D+00
 Harris functional with IExCor=  402 and IRadAn=       1 diagonalized for initial guess.
 HarFok:  IExCor=  402 AccDes= 0.00D+00 IRadAn=         1 IDoV= 1 UseB2=F ITyADJ=14
 ICtDFT=  3500011 ScaDFX=  1.000000  1.000000  1.000000  1.000000
 FoFCou: FMM=F IPFlag=           0 FMFlag=      100000 FMFlg1=           0
         NFxFlg=           0 DoJE=T BraDBF=F KetDBF=T FulRan=T
         wScrn=  0.000000 ICntrl=     500 IOpCl=  0 I1Cent=   200000004 NGrid=           0
         NMat0=    1 NMatS0=      1 NMatT0=    0 NMatD0=    1 NMtDS0=    0 NMtDT0=    0
 Petite list used in FoFCou.
 Harris En= -191.933695521779    
 Leave Link  401 at Fri Mar 20 17:38:27 2026, MaxMem=   536870912 cpu:         0.0
 (Enter C:\G09W\l502.exe)
 Closed shell SCF:
 Using DIIS extrapolation, IDIIS=  1040.
 Integral symmetry usage will be decided dynamically.
 Keep R1 ints in memory in canonical form, NReq=3676111.
 IVT=       33346 IEndB=       33346 NGot=   536870912 MDV=   534084536
 LenX=   534084536 LenY=   534079471
 Requested convergence on RMS density matrix=1.00D-08 within 128 cycles.
 Requested convergence on MAX density matrix=1.00D-06.
 Requested convergence on             energy=1.00D-06.
 No special actions if energy rises.
 FoFCou: FMM=F IPFlag=           0 FMFlag=           0 FMFlg1=           0
         NFxFlg=           0 DoJE=F BraDBF=F KetDBF=F FulRan=T
         wScrn=  0.000000 ICntrl=     600 IOpCl=  0 I1Cent=           0 NGrid=           0
         NMat0=    1 NMatS0=   2346 NMatT0=    0 NMatD0=    1 NMtDS0=    0 NMtDT0=    0
 Symmetry not used in FoFCou.
 Integral accuracy reduced to 1.0D-05 until final iterations.

 Cycle   1  Pass 0  IDiag  1:
 E= -191.911093617524    
 DIIS: error= 2.18D-03 at cycle   1 NSaved=   1.
 NSaved= 1 IEnMin= 1 EnMin= -191.911093617524     IErMin= 1 ErrMin= 2.18D-03
 ErrMax= 2.18D-03  0.00D+00 EMaxC= 1.00D-01 BMatC= 5.58D-04 BMatP= 5.58D-04
 IDIUse=3 WtCom= 9.78D-01 WtEn= 2.18D-02
 Coeff-Com:  0.100D+01
 Coeff-En:   0.100D+01
 Coeff:      0.100D+01
 Gap=     2.299 Goal=   None    Shift=    0.000
 GapD=    2.299 DampG=2.000 DampE=1.000 DampFc=2.0000 IDamp=-1.
 RMSDP=7.45D-04 MaxDP=8.82D-03              OVMax= 9.39D-03

 Cycle   2  Pass 0  IDiag  1:
 E= -191.911910499447     Delta-E=       -0.000816881924 Rises=F Damp=F
 DIIS: error= 5.12D-04 at cycle   2 NSaved=   2.
 NSaved= 2 IEnMin= 2 EnMin= -191.911910499447     IErMin= 2 ErrMin= 5.12D-04
 ErrMax= 5.12D-04  0.00D+00 EMaxC= 1.00D-01 BMatC= 2.38D-05 BMatP= 5.58D-04
 IDIUse=3 WtCom= 9.95D-01 WtEn= 5.12D-03
 Coeff-Com:  0.141D-01 0.986D+00
 Coeff-En:   0.000D+00 0.100D+01
 Coeff:      0.141D-01 0.986D+00
 Gap=     0.193 Goal=   None    Shift=    0.000
 RMSDP=1.48D-04 MaxDP=2.23D-03 DE=-8.17D-04 OVMax= 3.15D-03

 Cycle   3  Pass 0  IDiag  1:
 E= -191.911897397735     Delta-E=        0.000013101712 Rises=F Damp=F
 DIIS: error= 7.73D-04 at cycle   3 NSaved=   3.
 NSaved= 3 IEnMin= 2 EnMin= -191.911910499447     IErMin= 2 ErrMin= 5.12D-04
 ErrMax= 7.73D-04  0.00D+00 EMaxC= 1.00D-01 BMatC= 4.41D-05 BMatP= 2.38D-05
 IDIUse=3 WtCom= 2.64D-01 WtEn= 7.36D-01
 Coeff-Com: -0.285D-01 0.600D+00 0.428D+00
 Coeff-En:   0.000D+00 0.616D+00 0.384D+00
 Coeff:     -0.753D-02 0.611D+00 0.396D+00
 Gap=     0.192 Goal=   None    Shift=    0.000
 RMSDP=8.94D-05 MaxDP=1.70D-03 DE= 1.31D-05 OVMax= 2.59D-03

 Cycle   4  Pass 0  IDiag  1:
 E= -191.911930330061     Delta-E=       -0.000032932326 Rises=F Damp=F
 DIIS: error= 2.10D-04 at cycle   4 NSaved=   4.
 NSaved= 4 IEnMin= 4 EnMin= -191.911930330061     IErMin= 4 ErrMin= 2.10D-04
 ErrMax= 2.10D-04  0.00D+00 EMaxC= 1.00D-01 BMatC= 2.56D-06 BMatP= 2.38D-05
 IDIUse=3 WtCom= 9.98D-01 WtEn= 2.10D-03
 Coeff-Com: -0.174D-01 0.242D+00 0.235D+00 0.541D+00
 Coeff-En:   0.000D+00 0.000D+00 0.000D+00 0.100D+01
 Coeff:     -0.174D-01 0.241D+00 0.234D+00 0.542D+00
 Gap=     0.192 Goal=   None    Shift=    0.000
 RMSDP=2.36D-05 MaxDP=3.78D-04 DE=-3.29D-05 OVMax= 6.60D-04

 Cycle   5  Pass 0  IDiag  1:
 E= -191.911932389438     Delta-E=       -0.000002059377 Rises=F Damp=F
 DIIS: error= 4.49D-05 at cycle   5 NSaved=   5.
 NSaved= 5 IEnMin= 5 EnMin= -191.911932389438     IErMin= 5 ErrMin= 4.49D-05
 ErrMax= 4.49D-05  0.00D+00 EMaxC= 1.00D-01 BMatC= 2.00D-07 BMatP= 2.56D-06
 IDIUse=1 WtCom= 1.00D+00 WtEn= 0.00D+00
 Coeff-Com: -0.684D-02 0.815D-01 0.856D-01 0.287D+00 0.553D+00
 Coeff:     -0.684D-02 0.815D-01 0.856D-01 0.287D+00 0.553D+00
 Gap=     0.192 Goal=   None    Shift=    0.000
 RMSDP=7.25D-06 MaxDP=1.43D-04 DE=-2.06D-06 OVMax= 3.04D-04

 Initial convergence to 1.0D-05 achieved.  Increase integral accuracy.
 Cycle   6  Pass 1  IDiag  1:
 E= -191.911929017592     Delta-E=        0.000003371846 Rises=F Damp=F
 DIIS: error= 2.08D-05 at cycle   1 NSaved=   1.
 NSaved= 1 IEnMin= 1 EnMin= -191.911929017592     IErMin= 1 ErrMin= 2.08D-05
 ErrMax= 2.08D-05  0.00D+00 EMaxC= 1.00D-01 BMatC= 4.47D-08 BMatP= 4.47D-08
 IDIUse=1 WtCom= 1.00D+00 WtEn= 0.00D+00
 Coeff-Com:  0.100D+01
 Coeff:      0.100D+01
 Gap=     0.192 Goal=   None    Shift=    0.000
 RMSDP=7.25D-06 MaxDP=1.43D-04 DE= 3.37D-06 OVMax= 3.83D-04

 Cycle   7  Pass 1  IDiag  1:
 E= -191.911928888125     Delta-E=        0.000000129467 Rises=F Damp=F
 DIIS: error= 4.43D-05 at cycle   2 NSaved=   2.
 NSaved= 2 IEnMin= 1 EnMin= -191.911929017592     IErMin= 1 ErrMin= 2.08D-05
 ErrMax= 4.43D-05  0.00D+00 EMaxC= 1.00D-01 BMatC= 1.68D-07 BMatP= 4.47D-08
 IDIUse=1 WtCom= 1.00D+00 WtEn= 0.00D+00
 Coeff-Com:  0.663D+00 0.337D+00
 Coeff:      0.663D+00 0.337D+00
 Gap=     0.192 Goal=   None    Shift=    0.000
 RMSDP=5.81D-06 MaxDP=1.09D-04 DE= 1.29D-07 OVMax= 2.64D-04

 Cycle   8  Pass 1  IDiag  1:
 E= -191.911929066193     Delta-E=       -0.000000178068 Rises=F Damp=F
 DIIS: error= 3.86D-06 at cycle   3 NSaved=   3.
 NSaved= 3 IEnMin= 3 EnMin= -191.911929066193     IErMin= 3 ErrMin= 3.86D-06
 ErrMax= 3.86D-06  0.00D+00 EMaxC= 1.00D-01 BMatC= 1.06D-09 BMatP= 4.47D-08
 IDIUse=1 WtCom= 1.00D+00 WtEn= 0.00D+00
 Coeff-Com:  0.246D+00 0.141D+00 0.613D+00
 Coeff:      0.246D+00 0.141D+00 0.613D+00
 Gap=     0.192 Goal=   None    Shift=    0.000
 RMSDP=6.55D-07 MaxDP=1.22D-05 DE=-1.78D-07 OVMax= 2.05D-05

 Cycle   9  Pass 1  IDiag  1:
 E= -191.911929066555     Delta-E=       -0.000000000362 Rises=F Damp=F
 DIIS: error= 2.95D-06 at cycle   4 NSaved=   4.
 NSaved= 4 IEnMin= 4 EnMin= -191.911929066555     IErMin= 4 ErrMin= 2.95D-06
 ErrMax= 2.95D-06  0.00D+00 EMaxC= 1.00D-01 BMatC= 7.24D-10 BMatP= 1.06D-09
 IDIUse=1 WtCom= 1.00D+00 WtEn= 0.00D+00
 Coeff-Com:  0.285D-01 0.266D-01 0.454D+00 0.491D+00
 Coeff:      0.285D-01 0.266D-01 0.454D+00 0.491D+00
 Gap=     0.192 Goal=   None    Shift=    0.000
 RMSDP=3.60D-07 MaxDP=6.60D-06 DE=-3.62D-10 OVMax= 1.07D-05

 Cycle  10  Pass 1  IDiag  1:
 E= -191.911929067112     Delta-E=       -0.000000000556 Rises=F Damp=F
 DIIS: error= 6.50D-07 at cycle   5 NSaved=   5.
 NSaved= 5 IEnMin= 5 EnMin= -191.911929067112     IErMin= 5 ErrMin= 6.50D-07
 ErrMax= 6.50D-07  0.00D+00 EMaxC= 1.00D-01 BMatC= 3.39D-11 BMatP= 7.24D-10
 IDIUse=1 WtCom= 1.00D+00 WtEn= 0.00D+00
 Coeff-Com: -0.122D-01-0.139D-02 0.187D+00 0.261D+00 0.566D+00
 Coeff:     -0.122D-01-0.139D-02 0.187D+00 0.261D+00 0.566D+00
 Gap=     0.192 Goal=   None    Shift=    0.000
 RMSDP=8.47D-08 MaxDP=1.17D-06 DE=-5.56D-10 OVMax= 1.31D-06

 Cycle  11  Pass 1  IDiag  1:
 E= -191.911929067143     Delta-E=       -0.000000000032 Rises=F Damp=F
 DIIS: error= 3.02D-08 at cycle   6 NSaved=   6.
 NSaved= 6 IEnMin= 6 EnMin= -191.911929067143     IErMin= 6 ErrMin= 3.02D-08
 ErrMax= 3.02D-08  0.00D+00 EMaxC= 1.00D-01 BMatC= 8.21D-14 BMatP= 3.39D-11
 IDIUse=1 WtCom= 1.00D+00 WtEn= 0.00D+00
 Coeff-Com: -0.272D-02-0.529D-03 0.352D-01 0.462D-01 0.121D+00 0.801D+00
 Coeff:     -0.272D-02-0.529D-03 0.352D-01 0.462D-01 0.121D+00 0.801D+00
 Gap=     0.192 Goal=   None    Shift=    0.000
 RMSDP=5.47D-09 MaxDP=4.07D-08 DE=-3.18D-11 OVMax= 8.17D-08

 SCF Done:  E(RB3LYP) =  -191.911929067     A.U. after   11 cycles
            NFock= 11  Conv=0.55D-08     -V/T= 2.0094
 KE= 1.901210134811D+02 PE=-6.527004418067D+02 EE= 1.680003905679D+02
 Leave Link  502 at Fri Mar 20 17:38:30 2026, MaxMem=   536870912 cpu:         2.0
 (Enter C:\G09W\l701.exe)
 Compute integral first derivatives.
 ... and contract with generalized density number  0.
 Leave Link  701 at Fri Mar 20 17:38:31 2026, MaxMem=   536870912 cpu:         0.0
 (Enter C:\G09W\l702.exe)
 L702 exits ... SP integral derivatives will be done elsewhere.
 Leave Link  702 at Fri Mar 20 17:38:31 2026, MaxMem=   536870912 cpu:         0.0
 (Enter C:\G09W\l703.exe)
 Compute integral first derivatives, UseDBF=F ICtDFT=           0.
 Integral derivatives from FoFJK, PRISM(SPDF).
 Calling FoFJK, ICntrl=      2127 FMM=F ISym2X=0 I1Cent= 0 IOpClX= 0 NMat=1 NMatS=1 NMatT=0.
 FoFJK:  IHMeth= 1 ICntrl=    2127 DoSepK=F KAlg= 0 I1Cent=   0 FoldK=F
 IRaf=         0 NMat=   1 IRICut=       1 DoRegI=T DoRafI=F ISym2E= 0.
 FoFCou: FMM=F IPFlag=           0 FMFlag=      100000 FMFlg1=         800
         NFxFlg=           0 DoJE=F BraDBF=F KetDBF=F FulRan=T
         wScrn=  0.000000 ICntrl=    2127 IOpCl=  0 I1Cent=           0 NGrid=           0
         NMat0=    1 NMatS0=      1 NMatT0=    0 NMatD0=    1 NMtDS0=    0 NMtDT0=    0
 Symmetry not used in FoFCou.
 Leave Link  703 at Fri Mar 20 17:38:32 2026, MaxMem=   536870912 cpu:         1.0
 (Enter C:\G09W\l716.exe)
 Dipole        = 1.21887789D+00 2.27593075D-01 8.47301414D-07
 ***** Axes restored to original set *****
 -------------------------------------------------------------------
 Center     Atomic                   Forces (Hartrees/Bohr)
 Number     Number              X              Y              Z
 -------------------------------------------------------------------
      1        6           0.001223057   -0.001434408    0.000615078
      2        6           0.002343126    0.001207019   -0.000532582
      3        6          -0.002429867   -0.000022278    0.000021152
      4        8          -0.000699520   -0.000535327    0.000234289
      5        1           0.000215889    0.000534809   -0.000232287
      6        1           0.000347167    0.000500409   -0.000217923
      7        1          -0.000699693   -0.000758564    0.000331139
      8        1          -0.000300160    0.000508340   -0.000218866
 -------------------------------------------------------------------
 Cartesian Forces:  Max     0.002429867 RMS     0.000919115
 Leave Link  716 at Fri Mar 20 17:38:32 2026, MaxMem=   536870912 cpu:         0.0
 (Enter C:\G09W\l103.exe)

 GradGradGradGradGradGradGradGradGradGradGradGradGradGradGradGradGradGrad
 Berny optimization.
 Using GEDIIS/GDIIS optimizer.
 FormGI is forming the generalized inverse of G from B-inverse, IUseBI=4.
 Internal  Forces:  Max     0.002904453 RMS     0.000974071
 Search for a local minimum.
 Step number   2 out of a maximum of   34
 All quantities printed in internal units (Hartrees-Bohrs-Radians)
 RMS Force = .97407D-03 SwitMx=.10000D-02 MixMth= 2
 Mixed Optimization -- En-DIIS/RFO-DIIS
 Update second derivatives using D2CorX and points    1    2
 DE= -7.12D-04 DEPred=-7.84D-04 R= 9.08D-01
 TightC=F SS=  1.41D+00  RLast= 7.96D-02 DXNew= 5.0454D-01 2.3884D-01
 Trust test= 9.08D-01 RLast= 7.96D-02 DXMaxT set to 3.00D-01
 ITU=  1  0
 Use linear search instead of GDIIS.
     Eigenvalues ---    0.01017   0.01017   0.02066   0.02985   0.02985
     Eigenvalues ---    0.14887   0.16000   0.16000   0.16154   0.21197
     Eigenvalues ---    0.24925   0.32529   0.34805   0.35080   0.35120
     Eigenvalues ---    0.35650   0.60791   1.01189
 RFO step:  Lambda=-6.21747596D-05 EMin= 1.01728651D-02
 Quartic linear search produced a step of -0.07128.
 Iteration  1 RMS(Cart)=  0.00792223 RMS(Int)=  0.00001806
 Iteration  2 RMS(Cart)=  0.00002087 RMS(Int)=  0.00000000
 Iteration  3 RMS(Cart)=  0.00000000 RMS(Int)=  0.00000000
 ITry= 1 IFail=0 DXMaxC= 2.26D-02 DCOld= 1.00D+10 DXMaxT= 3.00D-01 DXLimC= 3.00D+00 Rises=F
 Variable       Old X    -DE/DX   Delta X   Delta X   Delta X     New X
                                 (Linear)    (Quad)   (Total)
    R1        2.53032  -0.00180  -0.00091  -0.00142  -0.00234   2.52798
    R2        2.05551   0.00056  -0.00006   0.00156   0.00150   2.05701
    R3        2.05377  -0.00059   0.00009  -0.00170  -0.00161   2.05217
    R4        2.79655  -0.00290   0.00015  -0.00806  -0.00791   2.78864
    R5        2.05368   0.00073   0.00019   0.00164   0.00183   2.05551
    R6        2.29670  -0.00042  -0.00108   0.00129   0.00021   2.29691
    R7        2.10293   0.00059  -0.00046   0.00239   0.00193   2.10486
    A1        2.11824  -0.00057   0.00150  -0.00556  -0.00406   2.11418
    A2        2.12971   0.00056  -0.00226   0.00668   0.00442   2.13413
    A3        2.03523   0.00001   0.00075  -0.00111  -0.00036   2.03488
    A4        2.12524  -0.00192  -0.00098  -0.00660  -0.00758   2.11766
    A5        2.13783   0.00014   0.00045  -0.00141  -0.00096   2.13687
    A6        2.02012   0.00178   0.00053   0.00801   0.00854   2.02865
    A7        2.17039  -0.00109  -0.00370   0.00108  -0.00262   2.16776
    A8        2.00069   0.00032   0.00185  -0.00185   0.00000   2.00069
    A9        2.11211   0.00077   0.00185   0.00077   0.00262   2.11473
    D1        0.00000   0.00000   0.00000   0.00000   0.00000   0.00000
    D2        3.14159   0.00000   0.00000   0.00000   0.00000  -3.14159
    D3        3.14159   0.00000   0.00000   0.00000   0.00000  -3.14159
    D4        0.00000   0.00000   0.00000   0.00000   0.00000   0.00000
    D5        3.14159   0.00000   0.00000   0.00002   0.00002  -3.14157
    D6        0.00000   0.00000   0.00000  -0.00002  -0.00003  -0.00002
    D7        0.00000   0.00000   0.00000   0.00002   0.00002   0.00002
    D8       -3.14159   0.00000   0.00000  -0.00002  -0.00002   3.14157
         Item               Value     Threshold  Converged?
 Maximum Force            0.002904     0.000450     NO 
 RMS     Force            0.000974     0.000300     NO 
 Maximum Displacement     0.022586     0.001800     NO 
 RMS     Displacement     0.007926     0.001200     NO 
 Predicted change in Energy=-3.526752D-05
 Lowest energy point so far.  Saving SCF results.
 GradGradGradGradGradGradGradGradGradGradGradGradGradGradGradGradGradGrad

 Leave Link  103 at Fri Mar 20 17:38:32 2026, MaxMem=   536870912 cpu:         0.0
 (Enter C:\G09W\l202.exe)
                          Input orientation:                          
 ---------------------------------------------------------------------
 Center     Atomic      Atomic             Coordinates (Angstroms)
 Number     Number       Type             X           Y           Z
 ---------------------------------------------------------------------
      1          6           0       -1.228263    0.044479   -0.013870
      2          6           0       -0.018158   -0.480852    0.208060
      3          6           0        1.213312    0.263463   -0.119242
      4          8           0        2.337373   -0.162762    0.060176
      5          1           0       -1.340179    1.038440   -0.443284
      6          1           0       -2.144234   -0.489476    0.221073
      7          1           0        0.118199   -1.471545    0.635954
      8          1           0        1.042843    1.273999   -0.555592
 ---------------------------------------------------------------------
                    Distance matrix (angstroms):
                    1          2          3          4          5
     1  C    0.000000
     2  C    1.337752   0.000000
     3  C    2.453639   1.475686   0.000000
     4  O    3.572420   2.381507   1.215472   0.000000
     5  H    1.088522   2.116657   2.688105   3.901377   0.000000
     6  H    1.085960   2.126133   3.457722   4.496379   1.849974
     7  H    2.129216   1.087732   2.186286   2.639918   3.097038
     8  H    2.638769   2.188239   1.113842   2.029596   2.397268
                    6          7          8
     6  H    0.000000
     7  H    2.501038   0.000000
     8  H    3.724314   3.132533   0.000000
 Stoichiometry    C3H4O
 Framework group  C1[X(C3H4O)]
 Deg. of freedom    18
 Full point group                 C1      NOp   1
 RotChk:  IX=0 Diff= 1.40D-03
 Largest Abelian subgroup         C1      NOp   1
 Largest concise Abelian subgroup C1      NOp   1
                         Standard orientation:                         
 ---------------------------------------------------------------------
 Center     Atomic      Atomic             Coordinates (Angstroms)
 Number     Number       Type             X           Y           Z
 ---------------------------------------------------------------------
      1          6           0        1.765952    0.139037    0.000003
      2          6           0        0.562846   -0.445869   -0.000003
      3          6           0       -0.678409    0.352214   -0.000010
      4          8           0       -1.796785   -0.123817    0.000005
      5          1           0        1.864723    1.223069    0.000002
      6          1           0        2.688941   -0.433152    0.000007
      7          1           0        0.439591   -1.526595   -0.000002
      8          1           0       -0.521307    1.454921    0.000010
 ---------------------------------------------------------------------
 Rotational constants (GHZ):     48.0375088      4.6239162      4.2179151
 Leave Link  202 at Fri Mar 20 17:38:33 2026, MaxMem=   536870912 cpu:         0.0
 (Enter C:\G09W\l301.exe)
 Standard basis: 6-31G(d) (6D, 7F)
 Ernie: Thresh=  0.10000D-02 Tol=  0.10000D-05 Strict=F.
 There are    68 symmetry adapted cartesian basis functions of A   symmetry.
 There are    68 symmetry adapted basis functions of A   symmetry.
    68 basis functions,   128 primitive gaussians,    68 cartesian basis functions
    15 alpha electrons       15 beta electrons
       nuclear repulsion energy       102.8047029411 Hartrees.
 IExCor=  402 DFT=T Ex+Corr=B3LYP ExCW=0 ScaHFX=  0.200000
 ScaDFX=  0.800000  0.720000  1.000000  0.810000 ScalE2=  1.000000  1.000000
 IRadAn=      0 IRanWt=     -1 IRanGd=            0 ICorTp=0 IEmpDi=  4
 NAtoms=    8 NActive=    8 NUniq=    8 SFac= 1.00D+00 NAtFMM=   60 NAOKFM=F Big=F
 Integral buffers will be    131072 words long.
 Raffenetti 2 integral format.
 Two-electron integral symmetry is turned on.
 Leave Link  301 at Fri Mar 20 17:38:33 2026, MaxMem=   536870912 cpu:         0.0
 (Enter C:\G09W\l302.exe)
 NPDir=0 NMtPBC=     1 NCelOv=     1 NCel=       1 NClECP=     1 NCelD=      1
         NCelK=      1 NCelE2=     1 NClLst=     1 CellRange=     0.0.
 One-electron integrals computed using PRISM.
 NBasis=    68 RedAO= T EigKep=  4.03D-03  NBF=    68
 NBsUse=    68 1.00D-06 EigRej= -1.00D+00 NBFU=    68
 Precomputing XC quadrature grid using
 IXCGrd= 4 IRadAn=           0 IRanWt=          -1 IRanGd=           0 AccXCQ= 0.00D+00.
 Generated NRdTot=       0 NPtTot=           0 NUsed=           0 NTot=          32
 NSgBfM=    68    68    68    68    68 MxSgAt=     8 MxSgA2=     8.
 Leave Link  302 at Fri Mar 20 17:38:33 2026, MaxMem=   536870912 cpu:         0.0
 (Enter C:\G09W\l303.exe)
 DipDrv:  MaxL=1.
 Leave Link  303 at Fri Mar 20 17:38:33 2026, MaxMem=   536870912 cpu:         0.0
 (Enter C:\G09W\l401.exe)
 Initial guess from the checkpoint file:  "acrolein_ml.chk"
 B after Tr=     0.000000    0.000000    0.000000
         Rot=    1.000000    0.000000    0.000000    0.000024 Ang=   0.00 deg.
 Guess basis will be translated and rotated to current coordinates.
 JPrj=2 DoOrth=T DoCkMO=T.
 Generating alternative initial guess.
 ExpMin= 1.61D-01 ExpMax= 5.48D+03 ExpMxC= 8.25D+02 IAcc=1 IRadAn=         1 AccDes= 0.00D+00
 Harris functional with IExCor=  402 and IRadAn=       1 diagonalized for initial guess.
 HarFok:  IExCor=  402 AccDes= 0.00D+00 IRadAn=         1 IDoV= 1 UseB2=F ITyADJ=14
 ICtDFT=  3500011 ScaDFX=  1.000000  1.000000  1.000000  1.000000
 FoFCou: FMM=F IPFlag=           0 FMFlag=      100000 FMFlg1=           0
         NFxFlg=           0 DoJE=T BraDBF=F KetDBF=T FulRan=T
         wScrn=  0.000000 ICntrl=     500 IOpCl=  0 I1Cent=   200000004 NGrid=           0
         NMat0=    1 NMatS0=      1 NMatT0=    0 NMatD0=    1 NMtDS0=    0 NMtDT0=    0
 Petite list used in FoFCou.
 Harris En= -191.933961263542    
 Leave Link  401 at Fri Mar 20 17:38:34 2026, MaxMem=   536870912 cpu:         0.0
 (Enter C:\G09W\l502.exe)
 Closed shell SCF:
 Using DIIS extrapolation, IDIIS=  1040.
 Integral symmetry usage will be decided dynamically.
 Keep R1 ints in memory in canonical form, NReq=3676111.
 IVT=       33346 IEndB=       33346 NGot=   536870912 MDV=   534084536
 LenX=   534084536 LenY=   534079471
 Requested convergence on RMS density matrix=1.00D-08 within 128 cycles.
 Requested convergence on MAX density matrix=1.00D-06.
 Requested convergence on             energy=1.00D-06.
 No special actions if energy rises.
 FoFCou: FMM=F IPFlag=           0 FMFlag=           0 FMFlg1=           0
         NFxFlg=           0 DoJE=F BraDBF=F KetDBF=F FulRan=T
         wScrn=  0.000000 ICntrl=     600 IOpCl=  0 I1Cent=           0 NGrid=           0
         NMat0=    1 NMatS0=   2346 NMatT0=    0 NMatD0=    1 NMtDS0=    0 NMtDT0=    0
 Symmetry not used in FoFCou.
 Integral accuracy reduced to 1.0D-05 until final iterations.

 Cycle   1  Pass 0  IDiag  1:
 E= -191.911953405019    
 DIIS: error= 3.77D-04 at cycle   1 NSaved=   1.
 NSaved= 1 IEnMin= 1 EnMin= -191.911953405019     IErMin= 1 ErrMin= 3.77D-04
 ErrMax= 3.77D-04  0.00D+00 EMaxC= 1.00D-01 BMatC= 1.36D-05 BMatP= 1.36D-05
 IDIUse=3 WtCom= 9.96D-01 WtEn= 3.77D-03
 Coeff-Com:  0.100D+01
 Coeff-En:   0.100D+01
 Coeff:      0.100D+01
 Gap=     2.308 Goal=   None    Shift=    0.000
 RMSDP=1.16D-04 MaxDP=1.17D-03              OVMax= 1.37D-03

 Cycle   2  Pass 0  IDiag  1:
 E= -191.911974984220     Delta-E=       -0.000021579201 Rises=F Damp=F
 DIIS: error= 1.23D-04 at cycle   2 NSaved=   2.
 NSaved= 2 IEnMin= 2 EnMin= -191.911974984220     IErMin= 2 ErrMin= 1.23D-04
 ErrMax= 1.23D-04  0.00D+00 EMaxC= 1.00D-01 BMatC= 1.50D-06 BMatP= 1.36D-05
 IDIUse=3 WtCom= 9.99D-01 WtEn= 1.23D-03
 Coeff-Com:  0.107D+00 0.893D+00
 Coeff-En:   0.000D+00 0.100D+01
 Coeff:      0.107D+00 0.893D+00
 Gap=     0.192 Goal=   None    Shift=    0.000
 RMSDP=3.84D-05 MaxDP=6.61D-04 DE=-2.16D-05 OVMax= 1.02D-03

 Cycle   3  Pass 0  IDiag  1:
 E= -191.911972886858     Delta-E=        0.000002097361 Rises=F Damp=F
 DIIS: error= 2.20D-04 at cycle   3 NSaved=   3.
 NSaved= 3 IEnMin= 2 EnMin= -191.911974984220     IErMin= 2 ErrMin= 1.23D-04
 ErrMax= 2.20D-04  0.00D+00 EMaxC= 1.00D-01 BMatC= 4.23D-06 BMatP= 1.50D-06
 IDIUse=3 WtCom= 4.03D-01 WtEn= 5.97D-01
 Coeff-Com: -0.268D-01 0.645D+00 0.382D+00
 Coeff-En:   0.000D+00 0.683D+00 0.317D+00
 Coeff:     -0.108D-01 0.668D+00 0.343D+00
 Gap=     0.192 Goal=   None    Shift=    0.000
 RMSDP=2.41D-05 MaxDP=4.61D-04 DE= 2.10D-06 OVMax= 7.18D-04

 Cycle   4  Pass 0  IDiag  1:
 E= -191.911976308173     Delta-E=       -0.000003421315 Rises=F Damp=F
 DIIS: error= 2.23D-05 at cycle   4 NSaved=   4.
 NSaved= 4 IEnMin= 4 EnMin= -191.911976308173     IErMin= 4 ErrMin= 2.23D-05
 ErrMax= 2.23D-05  0.00D+00 EMaxC= 1.00D-01 BMatC= 4.91D-08 BMatP= 1.50D-06
 IDIUse=1 WtCom= 1.00D+00 WtEn= 0.00D+00
 Coeff-Com: -0.203D-01 0.275D+00 0.140D+00 0.606D+00
 Coeff:     -0.203D-01 0.275D+00 0.140D+00 0.606D+00
 Gap=     0.192 Goal=   None    Shift=    0.000
 RMSDP=4.23D-06 MaxDP=7.60D-05 DE=-3.42D-06 OVMax= 1.30D-04

 Initial convergence to 1.0D-05 achieved.  Increase integral accuracy.
 Cycle   5  Pass 1  IDiag  1:
 E= -191.911970749703     Delta-E=        0.000005558470 Rises=F Damp=F
 DIIS: error= 9.57D-06 at cycle   1 NSaved=   1.
 NSaved= 1 IEnMin= 1 EnMin= -191.911970749703     IErMin= 1 ErrMin= 9.57D-06
 ErrMax= 9.57D-06  0.00D+00 EMaxC= 1.00D-01 BMatC= 1.14D-08 BMatP= 1.14D-08
 IDIUse=1 WtCom= 1.00D+00 WtEn= 0.00D+00
 Coeff-Com:  0.100D+01
 Coeff:      0.100D+01
 Gap=     0.192 Goal=   None    Shift=    0.000
 RMSDP=4.23D-06 MaxDP=7.60D-05 DE= 5.56D-06 OVMax= 1.65D-04

 Cycle   6  Pass 1  IDiag  1:
 E= -191.911970729799     Delta-E=        0.000000019904 Rises=F Damp=F
 DIIS: error= 1.77D-05 at cycle   2 NSaved=   2.
 NSaved= 2 IEnMin= 1 EnMin= -191.911970749703     IErMin= 1 ErrMin= 9.57D-06
 ErrMax= 1.77D-05  0.00D+00 EMaxC= 1.00D-01 BMatC= 3.10D-08 BMatP= 1.14D-08
 IDIUse=1 WtCom= 1.00D+00 WtEn= 0.00D+00
 Coeff-Com:  0.633D+00 0.367D+00
 Coeff:      0.633D+00 0.367D+00
 Gap=     0.192 Goal=   None    Shift=    0.000
 RMSDP=2.52D-06 MaxDP=5.07D-05 DE= 1.99D-08 OVMax= 1.19D-04

 Cycle   7  Pass 1  IDiag  1:
 E= -191.911970762687     Delta-E=       -0.000000032888 Rises=F Damp=F
 DIIS: error= 2.51D-06 at cycle   3 NSaved=   3.
 NSaved= 3 IEnMin= 3 EnMin= -191.911970762687     IErMin= 3 ErrMin= 2.51D-06
 ErrMax= 2.51D-06  0.00D+00 EMaxC= 1.00D-01 BMatC= 4.35D-10 BMatP= 1.14D-08
 IDIUse=1 WtCom= 1.00D+00 WtEn= 0.00D+00
 Coeff-Com:  0.786D-01 0.115D+00 0.806D+00
 Coeff:      0.786D-01 0.115D+00 0.806D+00
 Gap=     0.192 Goal=   None    Shift=    0.000
 RMSDP=5.47D-07 MaxDP=9.23D-06 DE=-3.29D-08 OVMax= 1.68D-05

 Cycle   8  Pass 1  IDiag  1:
 E= -191.911970762837     Delta-E=       -0.000000000151 Rises=F Damp=F
 DIIS: error= 1.96D-06 at cycle   4 NSaved=   4.
 NSaved= 4 IEnMin= 4 EnMin= -191.911970762837     IErMin= 4 ErrMin= 1.96D-06
 ErrMax= 1.96D-06  0.00D+00 EMaxC= 1.00D-01 BMatC= 3.39D-10 BMatP= 4.35D-10
 IDIUse=1 WtCom= 1.00D+00 WtEn= 0.00D+00
 Coeff-Com: -0.861D-02 0.428D-01 0.550D+00 0.416D+00
 Coeff:     -0.861D-02 0.428D-01 0.550D+00 0.416D+00
 Gap=     0.192 Goal=   None    Shift=    0.000
 RMSDP=2.75D-07 MaxDP=4.96D-06 DE=-1.51D-10 OVMax= 6.65D-06

 Cycle   9  Pass 1  IDiag  1:
 E= -191.911970763118     Delta-E=       -0.000000000280 Rises=F Damp=F
 DIIS: error= 4.33D-07 at cycle   5 NSaved=   5.
 NSaved= 5 IEnMin= 5 EnMin= -191.911970763118     IErMin= 5 ErrMin= 4.33D-07
 ErrMax= 4.33D-07  0.00D+00 EMaxC= 1.00D-01 BMatC= 2.12D-11 BMatP= 3.39D-10
 IDIUse=1 WtCom= 1.00D+00 WtEn= 0.00D+00
 Coeff-Com: -0.112D-01 0.195D-01 0.291D+00 0.264D+00 0.437D+00
 Coeff:     -0.112D-01 0.195D-01 0.291D+00 0.264D+00 0.437D+00
 Gap=     0.192 Goal=   None    Shift=    0.000
 RMSDP=5.37D-08 MaxDP=9.33D-07 DE=-2.80D-10 OVMax= 1.76D-06

 Cycle  10  Pass 1  IDiag  1:
 E= -191.911970763135     Delta-E=       -0.000000000017 Rises=F Damp=F
 DIIS: error= 4.77D-08 at cycle   6 NSaved=   6.
 NSaved= 6 IEnMin= 6 EnMin= -191.911970763135     IErMin= 6 ErrMin= 4.77D-08
 ErrMax= 4.77D-08  0.00D+00 EMaxC= 1.00D-01 BMatC= 2.31D-13 BMatP= 2.12D-11
 IDIUse=1 WtCom= 1.00D+00 WtEn= 0.00D+00
 Coeff-Com: -0.314D-02 0.394D-02 0.551D-01 0.586D-01 0.139D+00 0.746D+00
 Coeff:     -0.314D-02 0.394D-02 0.551D-01 0.586D-01 0.139D+00 0.746D+00
 Gap=     0.192 Goal=   None    Shift=    0.000
 RMSDP=9.57D-09 MaxDP=1.28D-07 DE=-1.66D-11 OVMax= 2.23D-07

 SCF Done:  E(RB3LYP) =  -191.911970763     A.U. after   10 cycles
            NFock= 10  Conv=0.96D-08     -V/T= 2.0094
 KE= 1.901308905700D+02 PE=-6.529852312834D+02 EE= 1.681376670092D+02
 Leave Link  502 at Fri Mar 20 17:38:36 2026, MaxMem=   536870912 cpu:         2.0
 (Enter C:\G09W\l701.exe)
 Compute integral first derivatives.
 ... and contract with generalized density number  0.
 Leave Link  701 at Fri Mar 20 17:38:37 2026, MaxMem=   536870912 cpu:         0.0
 (Enter C:\G09W\l702.exe)
 L702 exits ... SP integral derivatives will be done elsewhere.
 Leave Link  702 at Fri Mar 20 17:38:37 2026, MaxMem=   536870912 cpu:         0.0
 (Enter C:\G09W\l703.exe)
 Compute integral first derivatives, UseDBF=F ICtDFT=           0.
 Integral derivatives from FoFJK, PRISM(SPDF).
 Calling FoFJK, ICntrl=      2127 FMM=F ISym2X=0 I1Cent= 0 IOpClX= 0 NMat=1 NMatS=1 NMatT=0.
 FoFJK:  IHMeth= 1 ICntrl=    2127 DoSepK=F KAlg= 0 I1Cent=   0 FoldK=F
 IRaf=         0 NMat=   1 IRICut=       1 DoRegI=T DoRafI=F ISym2E= 0.
 FoFCou: FMM=F IPFlag=           0 FMFlag=      100000 FMFlg1=         800
         NFxFlg=           0 DoJE=F BraDBF=F KetDBF=F FulRan=T
         wScrn=  0.000000 ICntrl=    2127 IOpCl=  0 I1Cent=           0 NGrid=           0
         NMat0=    1 NMatS0=      1 NMatT0=    0 NMatD0=    1 NMtDS0=    0 NMtDT0=    0
 Symmetry not used in FoFCou.
 Leave Link  703 at Fri Mar 20 17:38:38 2026, MaxMem=   536870912 cpu:         1.0
 (Enter C:\G09W\l716.exe)
 Dipole        = 1.22161050D+00 2.24503115D-01-6.12661592D-06
 ***** Axes restored to original set *****
 -------------------------------------------------------------------
 Center     Atomic                   Forces (Hartrees/Bohr)
 Number     Number              X              Y              Z
 -------------------------------------------------------------------
      1        6          -0.000078350   -0.000049753    0.000021934
      2        6           0.000873178   -0.000261170    0.000110816
      3        6          -0.000373890    0.000050100   -0.000025288
      4        8          -0.000143192    0.000074248   -0.000029681
      5        1           0.000026177    0.000080662   -0.000034896
      6        1          -0.000047644    0.000103588   -0.000044837
      7        1          -0.000269830    0.000001586    0.000000526
      8        1           0.000013551    0.000000739    0.000001426
 -------------------------------------------------------------------
 Cartesian Forces:  Max     0.000873178 RMS     0.000215859
 Leave Link  716 at Fri Mar 20 17:38:38 2026, MaxMem=   536870912 cpu:         0.0
 (Enter C:\G09W\l103.exe)

 GradGradGradGradGradGradGradGradGradGradGradGradGradGradGradGradGradGrad
 Berny optimization.
 Using GEDIIS/GDIIS optimizer.
 FormGI is forming the generalized inverse of G from B-inverse, IUseBI=4.
 Internal  Forces:  Max     0.000551158 RMS     0.000187452
 Search for a local minimum.
 Step number   3 out of a maximum of   34
 All quantities printed in internal units (Hartrees-Bohrs-Radians)
 RMS Force = .18745D-03 SwitMx=.10000D-02 MixMth= 2
 Mixed Optimization -- En-DIIS/RFO-DIIS
 Swapping is turned off.
 Update second derivatives using D2CorX and points    1    2    3
 DE= -4.17D-05 DEPred=-3.53D-05 R= 1.18D+00
 TightC=F SS=  1.41D+00  RLast= 1.62D-02 DXNew= 5.0454D-01 4.8478D-02
 Trust test= 1.18D+00 RLast= 1.62D-02 DXMaxT set to 3.00D-01
 ITU=  1  1  0
     Eigenvalues ---    0.01017   0.01017   0.02061   0.02985   0.02985
     Eigenvalues ---    0.12852   0.16000   0.16040   0.16077   0.20105
     Eigenvalues ---    0.23933   0.32697   0.34232   0.35080   0.35113
     Eigenvalues ---    0.35922   0.62707   1.01141
 En-DIIS/RFO-DIIS IScMMF=        0 using points:     3    2
 RFO step:  Lambda=-2.02998310D-06.
 NNeg= 0 NP= 2 Switch=  2.50D-03 Rises=F DC=  4.17D-05 SmlDif=  1.00D-05
 RMS Error=  0.4604410765D-03 NUsed= 2 EDIIS=F
 DidBck=F Rises=F RFO-DIIS coefs:    1.21711   -0.21711
 Iteration  1 RMS(Cart)=  0.00301230 RMS(Int)=  0.00000342
 Iteration  2 RMS(Cart)=  0.00000417 RMS(Int)=  0.00000001
 Iteration  3 RMS(Cart)=  0.00000000 RMS(Int)=  0.00000001
 ITry= 1 IFail=0 DXMaxC= 8.01D-03 DCOld= 1.00D+10 DXMaxT= 3.00D-01 DXLimC= 3.00D+00 Rises=F
 Variable       Old X    -DE/DX   Delta X   Delta X   Delta X     New X
                                 (Linear)    (Quad)   (Total)
    R1        2.52798   0.00015  -0.00051   0.00090   0.00039   2.52837
    R2        2.05701   0.00009   0.00033   0.00003   0.00035   2.05736
    R3        2.05217  -0.00002  -0.00035   0.00021  -0.00014   2.05203
    R4        2.78864  -0.00035  -0.00172   0.00022  -0.00150   2.78714
    R5        2.05551  -0.00004   0.00040  -0.00049  -0.00010   2.05542
    R6        2.29691  -0.00016   0.00005  -0.00007  -0.00003   2.29688
    R7        2.10486   0.00000   0.00042  -0.00030   0.00012   2.10498
    A1        2.11418  -0.00013  -0.00088  -0.00047  -0.00135   2.11282
    A2        2.13413   0.00019   0.00096   0.00097   0.00193   2.13606
    A3        2.03488  -0.00006  -0.00008  -0.00049  -0.00057   2.03431
    A4        2.11766  -0.00055  -0.00165  -0.00153  -0.00318   2.11448
    A5        2.13687   0.00000  -0.00021  -0.00046  -0.00067   2.13620
    A6        2.02865   0.00055   0.00185   0.00200   0.00385   2.03250
    A7        2.16776   0.00002  -0.00057   0.00114   0.00057   2.16834
    A8        2.00069   0.00000   0.00000  -0.00022  -0.00022   2.00048
    A9        2.11473  -0.00002   0.00057  -0.00093  -0.00036   2.11437
    D1        0.00000   0.00000   0.00000  -0.00001  -0.00001  -0.00001
    D2       -3.14159   0.00000   0.00000   0.00000   0.00000  -3.14159
    D3       -3.14159   0.00000   0.00000  -0.00001  -0.00001   3.14158
    D4        0.00000   0.00000   0.00000   0.00000   0.00000   0.00000
    D5       -3.14157   0.00000   0.00001  -0.00019  -0.00019   3.14143
    D6       -0.00002   0.00000  -0.00001   0.00020   0.00019   0.00017
    D7        0.00002   0.00000   0.00001  -0.00020  -0.00019  -0.00017
    D8        3.14157   0.00000  -0.00001   0.00019   0.00019  -3.14143
         Item               Value     Threshold  Converged?
 Maximum Force            0.000551     0.000450     NO 
 RMS     Force            0.000187     0.000300     YES
 Maximum Displacement     0.008011     0.001800     NO 
 RMS     Displacement     0.003013     0.001200     NO 
 Predicted change in Energy=-2.544099D-06
 Lowest energy point so far.  Saving SCF results.
 GradGradGradGradGradGradGradGradGradGradGradGradGradGradGradGradGradGrad

 Leave Link  103 at Fri Mar 20 17:38:38 2026, MaxMem=   536870912 cpu:         0.0
 (Enter C:\G09W\l202.exe)
                          Input orientation:                          
 ---------------------------------------------------------------------
 Center     Atomic      Atomic             Coordinates (Angstroms)
 Number     Number       Type             X           Y           Z
 ---------------------------------------------------------------------
      1          6           0       -1.226810    0.044057   -0.013694
      2          6           0       -0.017225   -0.482737    0.208842
      3          6           0        1.212002    0.263339   -0.119298
      4          8           0        2.337210   -0.160223    0.059138
      5          1           0       -1.335939    1.038436   -0.443332
      6          1           0       -2.144560   -0.487180    0.220132
      7          1           0        0.117065   -1.473608    0.636851
      8          1           0        1.039151    1.273662   -0.555366
 ---------------------------------------------------------------------
                    Distance matrix (angstroms):
                    1          2          3          4          5
     1  C    0.000000
     2  C    1.337957   0.000000
     3  C    2.450926   1.474891   0.000000
     4  O    3.570612   2.381133   1.215458   0.000000
     5  H    1.088709   2.116201   2.682868   3.896317   0.000000
     6  H    1.085889   2.127369   3.456154   4.496564   1.849745
     7  H    2.128970   1.087681   2.188066   2.643441   3.096510
     8  H    2.634371   2.187437   1.113905   2.029433   2.389338
                    6          7          8
     6  H    0.000000
     7  H    2.502327   0.000000
     8  H    3.719943   3.133546   0.000000
 Stoichiometry    C3H4O
 Framework group  C1[X(C3H4O)]
 Deg. of freedom    18
 Full point group                 C1      NOp   1
 RotChk:  IX=2 Diff= 1.17D-03
 Largest Abelian subgroup         C1      NOp   1
 Largest concise Abelian subgroup C1      NOp   1
                         Standard orientation:                         
 ---------------------------------------------------------------------
 Center     Atomic      Atomic             Coordinates (Angstroms)
 Number     Number       Type             X           Y           Z
 ---------------------------------------------------------------------
      1          6           0        1.764533    0.139819   -0.000021
      2          6           0        0.562453   -0.447661    0.000021
      3          6           0       -0.677246    0.351370    0.000083
      4          8           0       -1.796411   -0.122769   -0.000044
      5          1           0        1.859613    1.224368   -0.000017
      6          1           0        2.689737   -0.428644   -0.000058
      7          1           0        0.442165   -1.528670    0.000017
      8          1           0       -0.518671    1.453931   -0.000085
 ---------------------------------------------------------------------
 Rotational constants (GHZ):     47.9767435      4.6290568      4.2217221
 Leave Link  202 at Fri Mar 20 17:38:38 2026, MaxMem=   536870912 cpu:         0.0
 (Enter C:\G09W\l301.exe)
 Standard basis: 6-31G(d) (6D, 7F)
 Ernie: Thresh=  0.10000D-02 Tol=  0.10000D-05 Strict=F.
 There are    68 symmetry adapted cartesian basis functions of A   symmetry.
 There are    68 symmetry adapted basis functions of A   symmetry.
    68 basis functions,   128 primitive gaussians,    68 cartesian basis functions
    15 alpha electrons       15 beta electrons
       nuclear repulsion energy       102.8271507653 Hartrees.
 IExCor=  402 DFT=T Ex+Corr=B3LYP ExCW=0 ScaHFX=  0.200000
 ScaDFX=  0.800000  0.720000  1.000000  0.810000 ScalE2=  1.000000  1.000000
 IRadAn=      0 IRanWt=     -1 IRanGd=            0 ICorTp=0 IEmpDi=  4
 NAtoms=    8 NActive=    8 NUniq=    8 SFac= 1.00D+00 NAtFMM=   60 NAOKFM=F Big=F
 Integral buffers will be    131072 words long.
 Raffenetti 2 integral format.
 Two-electron integral symmetry is turned on.
 Leave Link  301 at Fri Mar 20 17:38:38 2026, MaxMem=   536870912 cpu:         0.0
 (Enter C:\G09W\l302.exe)
 NPDir=0 NMtPBC=     1 NCelOv=     1 NCel=       1 NClECP=     1 NCelD=      1
         NCelK=      1 NCelE2=     1 NClLst=     1 CellRange=     0.0.
 One-electron integrals computed using PRISM.
 NBasis=    68 RedAO= T EigKep=  4.02D-03  NBF=    68
 NBsUse=    68 1.00D-06 EigRej= -1.00D+00 NBFU=    68
 Precomputing XC quadrature grid using
 IXCGrd= 4 IRadAn=           0 IRanWt=          -1 IRanGd=           0 AccXCQ= 0.00D+00.
 Generated NRdTot=       0 NPtTot=           0 NUsed=           0 NTot=          32
 NSgBfM=    68    68    68    68    68 MxSgAt=     8 MxSgA2=     8.
 Leave Link  302 at Fri Mar 20 17:38:39 2026, MaxMem=   536870912 cpu:         1.0
 (Enter C:\G09W\l303.exe)
 DipDrv:  MaxL=1.
 Leave Link  303 at Fri Mar 20 17:38:39 2026, MaxMem=   536870912 cpu:         0.0
 (Enter C:\G09W\l401.exe)
 Initial guess from the checkpoint file:  "acrolein_ml.chk"
 B after Tr=     0.000000    0.000000    0.000000
         Rot=    1.000000    0.000000    0.000000   -0.000069 Ang=  -0.01 deg.
 Guess basis will be translated and rotated to current coordinates.
 JPrj=2 DoOrth=T DoCkMO=T.
 Leave Link  401 at Fri Mar 20 17:38:39 2026, MaxMem=   536870912 cpu:         0.0
 (Enter C:\G09W\l502.exe)
 Closed shell SCF:
 Using DIIS extrapolation, IDIIS=  1040.
 Integral symmetry usage will be decided dynamically.
 Keep R1 ints in memory in canonical form, NReq=3676111.
 IVT=       33346 IEndB=       33346 NGot=   536870912 MDV=   534084536
 LenX=   534084536 LenY=   534079471
 Requested convergence on RMS density matrix=1.00D-08 within 128 cycles.
 Requested convergence on MAX density matrix=1.00D-06.
 Requested convergence on             energy=1.00D-06.
 No special actions if energy rises.
 FoFCou: FMM=F IPFlag=           0 FMFlag=           0 FMFlg1=           0
         NFxFlg=           0 DoJE=F BraDBF=F KetDBF=F FulRan=T
         wScrn=  0.000000 ICntrl=     600 IOpCl=  0 I1Cent=           0 NGrid=           0
[...]
     11 -0.293068D-02  0.212053D+00 -0.187344D+00  0.536007D-01 -0.247018D+00
     12  0.226313D-01 -0.892035D-01  0.535819D-01 -0.841233D-01  0.103764D+00
     13 -0.123823D-01  0.404016D-04  0.356568D-02 -0.158391D-02  0.959618D-03
     14  0.610991D-02 -0.378514D-02 -0.114004D-02 -0.357171D-02  0.779802D-03
     15  0.259587D-02  0.159661D-02 -0.360334D-02 -0.788356D-02 -0.334752D-03
     16  0.739368D-02 -0.869309D-03  0.503458D-02 -0.210780D-02 -0.213415D-02
     17 -0.153404D-02  0.688624D-03  0.149233D-03  0.640554D-02  0.128456D-02
     18  0.951214D-02 -0.229640D-03  0.638616D-02  0.122050D-01 -0.560511D-03
     19 -0.121777D-01  0.584313D-02 -0.261570D-01  0.113017D-01  0.254940D-02
     20  0.108008D+00  0.615209D-02 -0.131024D-01  0.698157D-02 -0.467956D-03
     21 -0.867495D-01 -0.267400D-02  0.712508D-02  0.317737D-04  0.183234D-03
     22  0.101157D-01 -0.592531D-01  0.864410D-02 -0.373033D-02 -0.163539D-01
     23  0.125396D-01 -0.358694D-03 -0.231515D+00  0.748465D-01  0.285061D-01
     24  0.107227D-01  0.162107D-03  0.747966D-01 -0.907551D-01 -0.121807D-01
               11            12            13            14            15 
     11  0.163963D+00
     12 -0.600096D-01  0.483005D-01
     13 -0.147663D-02  0.641957D-03  0.582671D-01
     14  0.201488D-03  0.625065D-03 -0.281461D-01  0.303932D+00
     15  0.634782D-03  0.138080D-02  0.120258D-01 -0.120763D+00  0.766403D-01
     16 -0.991478D-03  0.422211D-03  0.567772D-02  0.305675D-02 -0.133102D-02
     17  0.447401D-04 -0.156801D-02 -0.223555D-01 -0.876322D-02  0.548285D-02
     18 -0.155823D-02 -0.289163D-02  0.966140D-02  0.537082D-02  0.131851D-02
     19  0.367372D-02 -0.160893D-02 -0.441738D-02  0.160723D-02 -0.624036D-03
     20  0.291424D-02 -0.212122D-02  0.977692D-03  0.230018D-02  0.405500D-02
     21 -0.213952D-02 -0.106943D-02 -0.351843D-03  0.405198D-02  0.993311D-02
     22  0.443876D-01 -0.190471D-01 -0.166332D-04  0.973955D-03 -0.419173D-03
     23 -0.809303D-02  0.114004D-01 -0.128799D-02  0.734677D-03 -0.988540D-04
     24  0.113356D-01  0.137015D-01  0.559022D-03 -0.108379D-03  0.538067D-03
               16            17            18            19            20 
     16  0.275625D+00
     17  0.129650D+00  0.124716D+00
     18 -0.571899D-01 -0.442740D-01  0.430833D-01
     19  0.120243D-02 -0.372492D-03  0.123615D-03  0.590681D-01
     20  0.214908D-03 -0.311722D-03 -0.300656D-02 -0.333414D-01  0.304377D+00
     21 -0.130173D-03 -0.300382D-02 -0.596003D-02  0.142802D-01 -0.119793D+00
     22  0.275568D-03  0.329334D-03 -0.148643D-03 -0.393540D-02 -0.211166D-02
     23 -0.503588D-03  0.440005D-03 -0.690553D-03 -0.256641D-02 -0.685590D-03
     24  0.211303D-03 -0.694190D-03 -0.862873D-03  0.113934D-02  0.149960D-02
               21            22            23            24 
     21  0.788452D-01
     22  0.942783D-03  0.739969D-01
     23  0.150123D-02 -0.276653D-01  0.252201D+00
     24  0.210569D-02  0.117414D-01 -0.990005D-01  0.657212D-01
 FormGI is forming the generalized inverse of G from B-inverse, IUseBI=4.
 Force constants in internal coordinates: 
                1             2             3             4             5 
      1  0.620739D+00
      2  0.814827D-02  0.359240D+00
      3  0.548069D-02  0.228627D-02  0.366083D+00
      4  0.252572D-01 -0.135270D-02 -0.631151D-03  0.310816D+00
      5  0.524525D-02 -0.173844D-03  0.633629D-03  0.287530D-02  0.360490D+00
      6 -0.986965D-02  0.666181D-03  0.774579D-03  0.610996D-01  0.200539D-02
      7  0.226430D-02  0.731497D-03  0.134903D-03  0.821371D-02  0.690436D-03
      8  0.924170D-02  0.637254D-02 -0.107416D-01 -0.249956D-02  0.275418D-02
      9  0.111676D-01 -0.121688D-01  0.401010D-02  0.256946D-02 -0.221621D-02
     10 -0.204093D-01  0.579628D-02  0.673145D-02 -0.698997D-04 -0.537974D-03
     11  0.146404D-01 -0.424315D-02  0.372232D-02  0.163177D-01 -0.114259D-01
     12  0.936416D-02  0.437289D-02 -0.277857D-02 -0.202931D-01  0.446931D-02
     13 -0.240045D-01 -0.129748D-03 -0.943751D-03  0.397538D-02  0.695660D-02
     14  0.988539D-02 -0.294242D-03  0.164889D-02  0.110940D-01 -0.558591D-02
     15 -0.636584D-02  0.140124D-02 -0.125763D-02  0.106601D-01  0.483345D-02
     16 -0.351955D-02 -0.110700D-02 -0.391260D-03 -0.217541D-01  0.752458D-03
     17  0.129741D-05  0.000000D+00  0.000000D+00  0.000000D+00  0.000000D+00
     18  0.000000D+00  0.000000D+00  0.000000D+00  0.000000D+00  0.000000D+00
     19  0.104040D-05  0.000000D+00  0.000000D+00  0.000000D+00  0.000000D+00
     20  0.000000D+00  0.000000D+00  0.000000D+00  0.000000D+00  0.000000D+00
     21  0.000000D+00  0.000000D+00  0.000000D+00  0.425251D-05  0.000000D+00
     22 -0.131150D-05  0.000000D+00  0.000000D+00 -0.424539D-05  0.000000D+00
     23  0.000000D+00  0.000000D+00  0.000000D+00  0.404150D-05  0.000000D+00
     24  0.000000D+00  0.000000D+00  0.000000D+00 -0.445641D-05  0.000000D+00
                6             7             8             9            10 
      6  0.853417D+00
      7  0.383625D-01  0.298857D+00
      8 -0.332575D-02  0.120273D-02  0.826088D-01
      9  0.341780D-02  0.298349D-03 -0.443052D-01  0.801491D-01
     10 -0.920454D-04 -0.150108D-02 -0.383036D-01 -0.358439D-01  0.741475D-01
     11  0.543750D-02 -0.185836D-02 -0.910995D-02  0.110617D-01 -0.195178D-02
     12 -0.210467D-02 -0.139870D-02  0.108689D-01 -0.960641D-02 -0.126249D-02
     13 -0.333283D-02  0.325706D-02 -0.175894D-02 -0.145533D-02  0.321426D-02
     14  0.244736D-01 -0.132415D-01  0.236890D-03  0.277449D-02 -0.301138D-02
     15 -0.414784D-01  0.121755D-01 -0.155051D-03 -0.104916D-02  0.120421D-02
     16  0.170048D-01  0.106607D-02 -0.818396D-04 -0.172533D-02  0.180717D-02
     17  0.000000D+00  0.000000D+00  0.000000D+00  0.000000D+00  0.000000D+00
     18  0.000000D+00  0.000000D+00  0.000000D+00  0.000000D+00  0.000000D+00
     19  0.113746D-05  0.000000D+00  0.000000D+00  0.104589D-05  0.000000D+00
     20  0.000000D+00  0.000000D+00  0.000000D+00  0.000000D+00  0.000000D+00
     21  0.752467D-05  0.166674D-05  0.000000D+00  0.000000D+00  0.000000D+00
     22 -0.879432D-05 -0.176761D-05  0.000000D+00  0.000000D+00  0.000000D+00
     23  0.849610D-05  0.186502D-05  0.000000D+00  0.000000D+00  0.000000D+00
     24 -0.782290D-05 -0.156933D-05  0.000000D+00  0.000000D+00  0.000000D+00
               11            12            13            14            15 
     11  0.108341D+00
     12 -0.562777D-01  0.869417D-01
     13 -0.520633D-01 -0.306640D-01  0.827273D-01
     14  0.239812D-01 -0.728959D-03 -0.232523D-01  0.143557D+00
     15 -0.171894D-01 -0.200508D-02  0.191945D-01 -0.622551D-01  0.104003D+00
     16 -0.679187D-02  0.273404D-02  0.405783D-02 -0.813016D-01 -0.417482D-01
     17  0.000000D+00  0.000000D+00  0.000000D+00  0.117235D-05  0.000000D+00
     18  0.000000D+00  0.000000D+00  0.000000D+00  0.000000D+00  0.000000D+00
     19  0.000000D+00  0.000000D+00  0.000000D+00  0.217231D-05  0.000000D+00
     20  0.000000D+00  0.000000D+00  0.000000D+00  0.000000D+00  0.000000D+00
     21  0.000000D+00  0.000000D+00  0.000000D+00  0.980395D-05  0.732269D-05
     22 -0.174682D-05  0.000000D+00  0.000000D+00 -0.106458D-04 -0.808467D-05
     23  0.000000D+00  0.000000D+00  0.000000D+00  0.111535D-04  0.715122D-05
     24 -0.107687D-05  0.000000D+00  0.107746D-05 -0.929629D-05 -0.825613D-05
               16            17            18            19            20 
     16  0.123050D+00
     17  0.000000D+00  0.204539D-01
     18  0.000000D+00  0.160369D-01  0.232831D-01
     19  0.000000D+00 -0.257242D-04 -0.701326D-02  0.218566D-01
     20  0.000000D+00 -0.444280D-02  0.232918D-03  0.148691D-01  0.195448D-01
     21 -0.632644D-05  0.371454D-03  0.371366D-02  0.727491D-03  0.406970D-02
     22  0.707622D-05 -0.268019D-02  0.320132D-02 -0.444986D-02  0.143165D-02
     23 -0.679003D-05  0.453731D-02 -0.312040D-02  0.731762D-02 -0.340087D-03
     24  0.661264D-05  0.148566D-02 -0.363274D-02  0.214027D-02 -0.297813D-02
               21            22            23            24 
     21  0.211092D-01
     22 -0.150915D-01  0.239720D-01
     23  0.179571D-01 -0.206385D-01  0.251792D-01
     24 -0.182436D-01  0.184250D-01 -0.134163D-01  0.232523D-01
 Leave Link  716 at Fri Mar 20 17:39:04 2026, MaxMem=   536870912 cpu:         0.0
 (Enter C:\G09W\l103.exe)

 GradGradGradGradGradGradGradGradGradGradGradGradGradGradGradGradGradGrad
 Berny optimization.
 Red2BG is reusing G-inverse.
 Internal  Forces:  Max     0.000112391 RMS     0.000044055
 Search for a local minimum.
 Step number   1 out of a maximum of    2
 All quantities printed in internal units (Hartrees-Bohrs-Radians)
 Second derivative matrix not updated -- analytic derivatives used.
 ITU=  0
     Eigenvalues ---    0.00704   0.02164   0.03064   0.04299   0.07634
     Eigenvalues ---    0.10109   0.10849   0.11481   0.14270   0.16481
     Eigenvalues ---    0.22592   0.30092   0.31334   0.36000   0.36243
     Eigenvalues ---    0.36727   0.62677   0.86661
 Angle between quadratic step and forces=  27.96 degrees.
 Linear search not attempted -- first point.
 Iteration  1 RMS(Cart)=  0.00067896 RMS(Int)=  0.00000024
 Iteration  2 RMS(Cart)=  0.00000026 RMS(Int)=  0.00000001
 ITry= 1 IFail=0 DXMaxC= 1.66D-03 DCOld= 1.00D+10 DXMaxT= 3.00D-01 DXLimC= 3.00D+00 Rises=F
 Variable       Old X    -DE/DX   Delta X   Delta X   Delta X     New X
                                 (Linear)    (Quad)   (Total)
    R1        2.52837   0.00006   0.00000   0.00012   0.00012   2.52849
    R2        2.05736  -0.00002   0.00000  -0.00007  -0.00007   2.05730
    R3        2.05203   0.00002   0.00000   0.00006   0.00006   2.05209
    R4        2.78714   0.00011   0.00000   0.00041   0.00041   2.78755
    R5        2.05542  -0.00005   0.00000  -0.00015  -0.00015   2.05526
    R6        2.29688  -0.00005   0.00000  -0.00012  -0.00012   2.29676
    R7        2.10498  -0.00003   0.00000  -0.00008  -0.00008   2.10490
    A1        2.11282   0.00002   0.00000   0.00012   0.00012   2.11294
    A2        2.13606  -0.00001   0.00000  -0.00004  -0.00004   2.13601
    A3        2.03431  -0.00001   0.00000  -0.00008  -0.00008   2.03423
    A4        2.11448  -0.00008   0.00000  -0.00070  -0.00070   2.11379
    A5        2.13620   0.00000   0.00000  -0.00013  -0.00013   2.13607
    A6        2.03250   0.00008   0.00000   0.00083   0.00083   2.03333
    A7        2.16834   0.00007   0.00000   0.00049   0.00049   2.16883
    A8        2.00048  -0.00006   0.00000  -0.00061  -0.00061   1.99986
    A9        2.11437   0.00000   0.00000   0.00012   0.00012   2.11449
    D1       -0.00001   0.00000   0.00000   0.00001   0.00001   0.00000
    D2       -3.14159   0.00000   0.00000   0.00000   0.00000  -3.14159
    D3        3.14158   0.00000   0.00000   0.00001   0.00001   3.14159
    D4        0.00000   0.00000   0.00000   0.00000   0.00000   0.00000
    D5        3.14143   0.00001   0.00000   0.00017   0.00017  -3.14159
    D6        0.00017  -0.00001   0.00000  -0.00017  -0.00017   0.00000
    D7       -0.00017   0.00001   0.00000   0.00017   0.00017   0.00000
    D8       -3.14143  -0.00001   0.00000  -0.00017  -0.00017   3.14159
         Item               Value     Threshold  Converged?
 Maximum Force            0.000112     0.000450     YES
 RMS     Force            0.000044     0.000300     YES
 Maximum Displacement     0.001662     0.001800     YES
 RMS     Displacement     0.000679     0.001200     YES
 Predicted change in Energy=-1.412014D-07
 Optimization completed.
    -- Stationary point found.
                           ----------------------------
                           !   Optimized Parameters   !
                           ! (Angstroms and Degrees)  !
 --------------------------                            --------------------------
 ! Name  Definition              Value          Derivative Info.                !
 --------------------------------------------------------------------------------
 ! R1    R(1,2)                  1.338          -DE/DX =    0.0001              !
 ! R2    R(1,5)                  1.0887         -DE/DX =    0.0                 !
 ! R3    R(1,6)                  1.0859         -DE/DX =    0.0                 !
 ! R4    R(2,3)                  1.4749         -DE/DX =    0.0001              !
 ! R5    R(2,7)                  1.0877         -DE/DX =    0.0                 !
 ! R6    R(3,4)                  1.2155         -DE/DX =    0.0                 !
 ! R7    R(3,8)                  1.1139         -DE/DX =    0.0                 !
 ! A1    A(2,1,5)              121.0559         -DE/DX =    0.0                 !
 ! A2    A(2,1,6)              122.387          -DE/DX =    0.0                 !
 ! A3    A(5,1,6)              116.5572         -DE/DX =    0.0                 !
 ! A4    A(1,2,3)              121.1511         -DE/DX =   -0.0001              !
 ! A5    A(1,2,7)              122.3951         -DE/DX =    0.0                 !
 ! A6    A(3,2,7)              116.4539         -DE/DX =    0.0001              !
 ! A7    A(2,3,4)              124.2366         -DE/DX =    0.0001              !
 ! A8    A(2,3,8)              114.6189         -DE/DX =   -0.0001              !
 ! A9    A(4,3,8)              121.1445         -DE/DX =    0.0                 !
 ! D1    D(5,1,2,3)             -0.0004         -DE/DX =    0.0                 !
 ! D2    D(5,1,2,7)           -180.0            -DE/DX =    0.0                 !
 ! D3    D(6,1,2,3)            179.9994         -DE/DX =    0.0                 !
 ! D4    D(6,1,2,7)             -0.0002         -DE/DX =    0.0                 !
 ! D5    D(1,2,3,4)           -180.0095         -DE/DX =    0.0                 !
 ! D6    D(1,2,3,8)              0.0099         -DE/DX =    0.0                 !
 ! D7    D(7,2,3,4)             -0.0099         -DE/DX =    0.0                 !
 ! D8    D(7,2,3,8)            180.0096         -DE/DX =    0.0                 !
 --------------------------------------------------------------------------------
 GradGradGradGradGradGradGradGradGradGradGradGradGradGradGradGradGradGrad

 Leave Link  103 at Fri Mar 20 17:39:04 2026, MaxMem=   536870912 cpu:         0.0
 (Enter C:\G09W\l9999.exe)
 1|1|UNPC-DESKTOP-GS7R1K3|Freq|RB3LYP|6-31G(d)|C3H4O1|1172|20-Mar-2026|
 0||#P Geom=AllCheck Guess=TCheck SCRF=Check GenChk RB3LYP/6-31G(d) Fre
 q||acrolein ml||0,1|C,-1.2268095024,0.0440573118,-0.0136940943|C,-0.01
 72252354,-0.4827371891,0.2088417249|C,1.2120018192,0.2633392009,-0.119
 2976524|O,2.3372102562,-0.1602227208,0.0591380747|H,-1.3359394792,1.03
 84361324,-0.4433315814|H,-2.1445599989,-0.4871803766,0.2201318389|H,0.
 1170645063,-1.4736075143,0.6368505041|H,1.0391506342,1.2736621555,-0.5
 553658144||Version=EM64W-G09RevD.01|State=1-A|HF=-191.9119735|RMSD=1.6
 80e-009|RMSF=5.684e-005|ZeroPoint=0.0616516|Thermal=0.0660065|Dipole=-
 1.2259964,0.1917914,-0.0776618|DipoleDeriv=0.1710573,0.0267795,-0.0133
 147,-0.0717834,0.056136,-0.1193807,0.0293494,-0.1198113,-0.1688758,-0.
 5274246,-0.0600425,0.0278196,-0.2034176,-0.007233,-0.0416868,0.089861,
 -0.0423008,-0.0877214,1.3779616,-0.0944045,0.0358008,0.226482,0.701649
 4,-0.2021328,-0.1029731,-0.2007207,0.3237873,-1.0864063,0.1250087,-0.0
 507954,0.1177588,-0.4856762,0.0594304,-0.0477503,0.0594304,-0.3725321,
 0.0619778,-0.0258185,0.0114909,0.0193473,-0.0443005,0.0777086,-0.00803
 91,0.0779078,0.101885,-0.0226846,-0.0432737,0.019383,-0.0593988,0.0404
 083,0.0383822,0.0263472,0.0383077,0.1118424,0.031335,0.0141995,-0.0057
 138,-0.0072327,-0.0382685,0.0725798,0.0035719,0.0724937,0.0980919,-0.0
 058162,0.0575515,-0.0246703,-0.0217555,-0.2227156,0.1150993,0.0096331,
 0.1146931,-0.0064773|Polar=54.2614885,-3.6146829,29.5433432,1.3875495,
 -6.732391,16.8471423|PG=C01 [X(C3H4O1)]|NImag=0||0.82894769,-0.0659074
 3,0.58870409,0.02537013,-0.20376984,0.20497110,-0.46454809,0.15199089,
 -0.06390735,0.75636878,0.16103158,-0.18173422,0.05699476,-0.12867758,0
 .61681296,-0.06781689,0.05703576,-0.07270003,0.05283031,-0.21702977,0.
 20739247,-0.04710383,-0.00278258,0.00142145,-0.13716599,-0.06032203,0.
 02636701,0.89220082,0.01208136,0.01537888,-0.00564164,-0.06863200,-0.1
 6362642,0.03780093,-0.15164498,0.58119979,-0.00501009,-0.00557341,0.00
 489414,0.02995472,0.03775660,-0.09340495,0.06255996,-0.17044573,0.2590
 3599,0.00413345,-0.01121267,0.00484304,-0.08077179,0.01102008,-0.00432
 977,-0.65369212,0.21710829,-0.09138429,0.74530947,-0.00667659,0.000153
 82,0.00106695,-0.00395117,0.02815943,-0.00293068,0.21205270,-0.1873438
 2,0.05360066,-0.24701819,0.16396313,0.00288171,0.00108490,0.00207024,0
 .00214988,-0.00299336,0.02263131,-0.08920350,0.05358189,-0.08412328,0.
 10376379,-0.06000962,0.04830053,-0.06285380,0.02006831,-0.00857012,0.0
 0234297,0.02865446,-0.01238231,0.00004040,0.00356568,-0.00158391,0.000
 95962,-0.00147663,0.00064196,0.05826711,0.02260913,-0.28829446,0.10828
 579,0.00290435,-0.00897090,0.00610991,-0.00378514,-0.00114004,-0.00357
 171,0.00077980,0.00020149,0.00062507,-0.02814608,0.30393228,-0.0096681
 8,0.10829643,-0.08452307,-0.00124526,0.00599661,0.00259587,0.00159661,
 -0.00360334,-0.00788356,-0.00033475,0.00063478,0.00138080,0.01202581,-
 0.12076348,0.07664026,-0.26033225,-0.11965850,0.05273169,-0.01944535,-
 0.01680283,0.00739368,-0.00086931,0.00503458,-0.00210780,-0.00213415,-
 0.00099148,0.00042221,0.00567772,0.00305675,-0.00133102,0.27562535,-0.
 12310756,-0.12856032,0.03918567,0.01388284,0.01228505,-0.00153404,0.00
 068862,0.00014923,0.00640554,0.00128456,0.00004474,-0.00156801,-0.0223
 5545,-0.00876322,0.00548285,0.12965015,0.12471623,0.05422299,0.0391698
 9,-0.05640438,-0.00587931,-0.00139753,0.00951214,-0.00022964,0.0063861
 6,0.01220496,-0.00056051,-0.00155823,-0.00289163,0.00966140,0.00537082
 ,0.00131851,-0.05718990,-0.04427400,0.04308330,0.00013780,0.02879316,-
 0.01243427,-0.06044806,0.02836321,-0.01217769,0.00584313,-0.02615703,0
 .01130174,0.00254940,0.00367372,-0.00160893,-0.00441738,0.00160723,-0.
 00062404,0.00120243,-0.00037249,0.00012361,0.05906808,-0.00040115,-0.0
 0541177,0.00437612,0.02897747,-0.29007996,0.10800828,0.00615209,-0.013
 10236,0.00698157,-0.00046796,0.00291424,-0.00212122,0.00097769,0.00230
 018,0.00405500,0.00021491,-0.00031172,-0.00300656,-0.03334139,0.304376
 98,0.00019354,0.00424759,0.00286326,-0.01244377,0.10801024,-0.08674955
 ,-0.00267400,0.00712508,0.00003177,0.00018323,-0.00213952,-0.00106943,
 -0.00035184,0.00405198,0.00993311,-0.00013017,-0.00300382,-0.00596003,
 0.01428023,-0.11979278,0.07884517,0.00161902,-0.00129120,0.00054542,0.
 00366752,-0.02326689,0.01011565,-0.05925309,0.00864410,-0.00373033,-0.
 01635388,0.04438764,-0.01904712,-0.00001663,0.00097396,-0.00041917,0.0
 0027557,0.00032933,-0.00014864,-0.00393540,-0.00211166,0.00094278,0.07
 399689,0.00037066,-0.00023603,-0.00049781,0.00350520,-0.01284594,0.012
 53962,-0.00035869,-0.23151527,0.07484647,0.02850608,-0.00809303,0.0114
 0036,-0.00128799,0.00073468,-0.00009885,-0.00050359,0.00044000,-0.0006
 9055,-0.00256641,-0.00068559,0.00150123,-0.02766527,0.25220117,-0.0001
 7322,-0.00049132,-0.00117126,-0.00145923,0.01266245,0.01072275,0.00016
 211,0.07479665,-0.09075508,-0.01218074,0.01133565,0.01370146,0.0005590
 2,-0.00010838,0.00053807,0.00021130,-0.00069419,-0.00086287,0.00113934
 ,0.00149960,0.00210569,0.01174142,-0.09900046,0.06572124||0.00001259,-
 0.00008819,0.00003873,0.00000098,0.00016694,-0.00005864,-0.00014408,-0
 .00007303,-0.00001046,0.00003342,-0.00003879,0.00003130,0.00001088,0.0
 0002110,-0.00000835,0.00001579,0.00000890,-0.00000589,0.00004673,-0.00
 003712,0.00001611,0.00002369,0.00004019,-0.00000280|||@


 KNOWLEDGE IS OF TWO KINDS:  WE KNOW A SUBJECT OURSELVES OR WE KNOW 
 WHERE WE CAN FIND INFORMATION UPON IT.

                                    -- SAMUEL JOHNSON
 Job cpu time:       0 days  0 hours  0 minutes 19.0 seconds.
 File lengths (MBytes):  RWF=      8 Int=      0 D2E=      0 Chk=      2 Scr=      1
 Normal termination of Gaussian 09 at Fri Mar 20 17:39:04 2026.
