 Entering Gaussian System, Link 0=C:\G09W\g09.exe
 Input=propyne_rdkit.com
 Output=C:\workspace\delta_chem\data\raw\propyne\propyne_rdkit.out
 Initial command:
 C:\G09W\l1.exe ".\Gau-17384.inp" "C:\workspace\delta_chem\data\raw\propyne\propyne_rdkit.out" /scrdir=".\"
 Entering Link 1 = C:\G09W\l1.exe PID=      7832.
  
 Copyright (c) 1988,1990,1992,1993,1995,1998,2003,2009,2013,
            Gaussian, Inc.  All Rights Reserved.
  
 This is part of the Gaussian(R) 09 program.  It is based on
 the Gaussian(R) 03 system (copyright 2003, Gaussian, Inc.),
 the Gaussian(R) 98 system (copyright 1998, Gaussian, Inc.),
 the Gaussian(R) 94 system (copyright 1995, Gaussian, Inc.),
 the Gaussian 92(TM) system (copyright 1992, Gaussian, Inc.),
 the Gaussian 90(TM) system (copyright 1990, Gaussian, Inc.),
 the Gaussian 88(TM) system (copyright 1988, Gaussian, Inc.),
 the Gaussian 86(TM) system (copyright 1986, Carnegie Mellon
 University), and the Gaussian 82(TM) system (copyright 1983,
 Carnegie Mellon University). Gaussian is a federally registered
 trademark of Gaussian, Inc.
  
 This software contains proprietary and confidential information,
 including trade secrets, belonging to Gaussian, Inc.
  
 This software is provided under written license and may be
 used, copied, transmitted, or stored only in accord with that
 written license.
  
 The following legend is applicable only to US Government
 contracts under FAR:
  
                    RESTRICTED RIGHTS LEGEND
  
 Use, reproduction and disclosure by the US Government is
 subject to restrictions as set forth in subparagraphs (a)
 and (c) of the Commercial Computer Software - Restricted
 Rights clause in FAR 52.227-19.
  
 Gaussian, Inc.
 340 Quinnipiac St., Bldg. 40, Wallingford CT 06492
  
  
 ---------------------------------------------------------------
 Warning -- This program may not be used in any manner that
 competes with the business of Gaussian, Inc. or will provide
 assistance to any competitor of Gaussian, Inc.  The licensee
 of this program is prohibited from giving any competitor of
 Gaussian, Inc. access to this program.  By using this program,
 the user acknowledges that Gaussian, Inc. is engaged in the
 business of creating and licensing software in the field of
 computational chemistry and represents and warrants to the
 licensee that it is not a competitor of Gaussian, Inc. and that
 it will not use this program in any manner prohibited above.
 ---------------------------------------------------------------
  

 Cite this work as:
 Gaussian 09, Revision D.01,
 M. J. Frisch, G. W. Trucks, H. B. Schlegel, G. E. Scuseria, 
 M. A. Robb, J. R. Cheeseman, G. Scalmani, V. Barone, B. Mennucci, 
 G. A. Petersson, H. Nakatsuji, M. Caricato, X. Li, H. P. Hratchian, 
 A. F. Izmaylov, J. Bloino, G. Zheng, J. L. Sonnenberg, M. Hada, 
 M. Ehara, K. Toyota, R. Fukuda, J. Hasegawa, M. Ishida, T. Nakajima, 
 Y. Honda, O. Kitao, H. Nakai, T. Vreven, J. A. Montgomery, Jr., 
 J. E. Peralta, F. Ogliaro, M. Bearpark, J. J. Heyd, E. Brothers, 
 K. N. Kudin, V. N. Staroverov, T. Keith, R. Kobayashi, J. Normand, 
 K. Raghavachari, A. Rendell, J. C. Burant, S. S. Iyengar, J. Tomasi, 
 M. Cossi, N. Rega, J. M. Millam, M. Klene, J. E. Knox, J. B. Cross, 
 V. Bakken, C. Adamo, J. Jaramillo, R. Gomperts, R. E. Stratmann, 
 O. Yazyev, A. J. Austin, R. Cammi, C. Pomelli, J. W. Ochterski, 
 R. L. Martin, K. Morokuma, V. G. Zakrzewski, G. A. Voth, 
 P. Salvador, J. J. Dannenberg, S. Dapprich, A. D. Daniels, 
 O. Farkas, J. B. Foresman, J. V. Ortiz, J. Cioslowski, 
 and D. J. Fox, Gaussian, Inc., Wallingford CT, 2013.
 
 ******************************************
 Gaussian 09:  EM64W-G09RevD.01 13-Apr-2013
                19-Mar-2026 
 ******************************************
 %NProcShared=4
 Will use up to    4 processors via shared memory.
 %Mem=4GB
 %Chk=propyne_rdkit.chk
 ---------------------
 #p opt B3LYP/6-31G(d)
 ---------------------
 1/14=-1,18=20,19=15,26=3,38=1/1,3;
 2/9=110,12=2,17=6,18=5,40=1/2;
 3/5=1,6=6,7=1,11=2,16=1,25=1,30=1,71=1,74=-5/1,2,3;
 4//1;
 5/5=2,38=5/2;
 6/7=2,8=2,9=2,10=2,28=1/1;
 7//1,2,3,16;
 1/14=-1,18=20,19=15,26=3/3(2);
 2/9=110/2;
 99//99;
 2/9=110/2;
 3/5=1,6=6,7=1,11=2,16=1,25=1,30=1,71=1,74=-5/1,2,3;
 4/5=5,16=3,69=1/1;
 5/5=2,38=5/2;
 7//1,2,3,16;
 1/14=-1,18=20,19=15,26=3/3(-5);
 2/9=110/2;
 6/7=2,8=2,9=2,10=2,19=2,28=1/1;
 99/9=1/99;
 Leave Link    1 at Thu Mar 19 18:10:18 2026, MaxMem=   536870912 cpu:         0.0
 (Enter C:\G09W\l101.exe)
 -------
 propyne
 -------
 Symbolic Z-matrix:
 Charge =  0 Multiplicity = 1
 C                    -0.94113   0.10357   0.4293 
 C                     0.49985  -0.05501   0.23018 
 C                     1.68225  -0.18513   0.0668 
 H                    -1.438     0.35953  -0.51134 
 H                    -1.38579  -0.82192   0.80737 
 H                    -1.1489    0.89958   1.15068 
 H                     2.73171  -0.30062  -0.07821 
 
 NAtoms=      7 NQM=        7 NQMF=       0 NMMI=      0 NMMIF=      0
                NMic=       0 NMicF=      0.
                    Isotopes and Nuclear Properties:
 (Nuclear quadrupole moments (NQMom) in fm**2, nuclear magnetic moments (NMagM)
  in nuclear magnetons)

  Atom         1           2           3           4           5           6           7
 IAtWgt=          12          12          12           1           1           1           1
 AtmWgt=  12.0000000  12.0000000  12.0000000   1.0078250   1.0078250   1.0078250   1.0078250
 NucSpn=           0           0           0           1           1           1           1
 AtZEff=   0.0000000   0.0000000   0.0000000   0.0000000   0.0000000   0.0000000   0.0000000
 NQMom=    0.0000000   0.0000000   0.0000000   0.0000000   0.0000000   0.0000000   0.0000000
 NMagM=    0.0000000   0.0000000   0.0000000   2.7928460   2.7928460   2.7928460   2.7928460
 AtZNuc=   6.0000000   6.0000000   6.0000000   1.0000000   1.0000000   1.0000000   1.0000000
 Leave Link  101 at Thu Mar 19 18:10:19 2026, MaxMem=   536870912 cpu:         0.0
 (Enter C:\G09W\l103.exe)

 GradGradGradGradGradGradGradGradGradGradGradGradGradGradGradGradGradGrad
 Berny optimization.
 Initialization pass.
                           ----------------------------
                           !    Initial Parameters    !
                           ! (Angstroms and Degrees)  !
 --------------------------                            --------------------------
 ! Name  Definition              Value          Derivative Info.                !
 --------------------------------------------------------------------------------
 ! R1    R(1,2)                  1.4633         estimate D2E/DX2                !
 ! R2    R(1,4)                  1.0942         estimate D2E/DX2                !
 ! R3    R(1,5)                  1.0942         estimate D2E/DX2                !
 ! R4    R(1,6)                  1.0942         estimate D2E/DX2                !
 ! R5    R(2,3)                  1.2007         estimate D2E/DX2                !
 ! R6    R(3,7)                  1.0657         estimate D2E/DX2                !
 ! A1    A(2,1,4)              110.8274         estimate D2E/DX2                !
 ! A2    A(2,1,5)              110.8274         estimate D2E/DX2                !
 ! A3    A(2,1,6)              110.8274         estimate D2E/DX2                !
 ! A4    A(4,1,5)              108.0816         estimate D2E/DX2                !
 ! A5    A(4,1,6)              108.0817         estimate D2E/DX2                !
 ! A6    A(5,1,6)              108.0817         estimate D2E/DX2                !
 ! A7    L(1,2,3,5,-1)         179.9999         estimate D2E/DX2                !
 ! A8    L(2,3,7,5,-1)         180.0            estimate D2E/DX2                !
 ! A9    L(1,2,3,5,-2)         180.0002         estimate D2E/DX2                !
 ! A10   L(2,3,7,5,-2)         180.0004         estimate D2E/DX2                !
 ! D1    D(2,1,5,4)           -121.6263         estimate D2E/DX2                !
 ! D2    D(2,1,6,4)            121.6263         estimate D2E/DX2                !
 ! D3    D(2,1,6,5)           -121.6263         estimate D2E/DX2                !
 ! D4    D(4,1,6,5)            116.7473         estimate D2E/DX2                !
 --------------------------------------------------------------------------------
 Trust Radius=3.00D-01 FncErr=1.00D-07 GrdErr=1.00D-06
 Number of steps in this run=     30 maximum allowed number of steps=    100.
 GradGradGradGradGradGradGradGradGradGradGradGradGradGradGradGradGradGrad

 Leave Link  103 at Thu Mar 19 18:10:19 2026, MaxMem=   536870912 cpu:         0.0
 (Enter C:\G09W\l202.exe)
                          Input orientation:                          
 ---------------------------------------------------------------------
 Center     Atomic      Atomic             Coordinates (Angstroms)
 Number     Number       Type             X           Y           Z
 ---------------------------------------------------------------------
      1          6           0       -0.941129    0.103571    0.429300
      2          6           0        0.499854   -0.055008    0.230184
      3          6           0        1.682252   -0.185131    0.066802
      4          1           0       -1.437995    0.359533   -0.511336
      5          1           0       -1.385793   -0.821917    0.807365
      6          1           0       -1.148904    0.899576    1.150682
      7          1           0        2.731714   -0.300623   -0.078209
 ---------------------------------------------------------------------
                    Distance matrix (angstroms):
                    1          2          3          4          5
     1  C    0.000000
     2  C    1.463293   0.000000
     3  C    2.663997   1.200704   0.000000
     4  H    1.094161   2.115882   3.219758   0.000000
     5  H    1.094161   2.115881   3.219756   1.771305   0.000000
     6  H    1.094160   2.115880   3.219756   1.771306   1.771305
     7  H    3.729707   2.266414   1.065710   4.243805   4.243802
                    6          7
     6  H    0.000000
     7  H    4.243801   0.000000
 This structure is nearly, but not quite of a higher symmetry.
 Consider Symm=Loose if the higher symmetry is desired.
 Stoichiometry    C3H4
 Framework group  C1[X(C3H4)]
 Deg. of freedom    15
 Full point group                 C1      NOp   1
 Largest Abelian subgroup         C1      NOp   1
 Largest concise Abelian subgroup C1      NOp   1
                         Standard orientation:                         
 ---------------------------------------------------------------------
 Center     Atomic      Atomic             Coordinates (Angstroms)
 Number     Number       Type             X           Y           Z
 ---------------------------------------------------------------------
      1          6           0       -1.195577    0.096790    0.322577
      2          6           0        0.212901   -0.017235   -0.057442
      3          6           0        1.368626   -0.110800   -0.369267
      4          1           0       -1.446405    1.130006    0.580914
      5          1           0       -1.846798   -0.215413   -0.499389
      6          1           0       -1.416909   -0.533279    1.189302
      7          1           0        2.394414   -0.193848   -0.646033
 ---------------------------------------------------------------------
 Rotational constants (GHZ):    159.8251981      8.5538731      8.5538728
 Leave Link  202 at Thu Mar 19 18:10:19 2026, MaxMem=   536870912 cpu:         0.0
 (Enter C:\G09W\l301.exe)
 Standard basis: 6-31G(d) (6D, 7F)
 Ernie: Thresh=  0.10000D-02 Tol=  0.10000D-05 Strict=F.
 There are    53 symmetry adapted cartesian basis functions of A   symmetry.
 There are    53 symmetry adapted basis functions of A   symmetry.
    53 basis functions,   100 primitive gaussians,    53 cartesian basis functions
    11 alpha electrons       11 beta electrons
       nuclear repulsion energy        58.7033276357 Hartrees.
 IExCor=  402 DFT=T Ex+Corr=B3LYP ExCW=0 ScaHFX=  0.200000
 ScaDFX=  0.800000  0.720000  1.000000  0.810000 ScalE2=  1.000000  1.000000
 IRadAn=      0 IRanWt=     -1 IRanGd=            0 ICorTp=0 IEmpDi=  4
 NAtoms=    7 NActive=    7 NUniq=    7 SFac= 1.00D+00 NAtFMM=   60 NAOKFM=F Big=F
 Integral buffers will be    131072 words long.
 Raffenetti 2 integral format.
 Two-electron integral symmetry is turned on.
 Leave Link  301 at Thu Mar 19 18:10:19 2026, MaxMem=   536870912 cpu:         0.0
 (Enter C:\G09W\l302.exe)
 NPDir=0 NMtPBC=     1 NCelOv=     1 NCel=       1 NClECP=     1 NCelD=      1
         NCelK=      1 NCelE2=     1 NClLst=     1 CellRange=     0.0.
 One-electron integrals computed using PRISM.
 NBasis=    53 RedAO= T EigKep=  5.01D-04  NBF=    53
 NBsUse=    53 1.00D-06 EigRej= -1.00D+00 NBFU=    53
 Precomputing XC quadrature grid using
 IXCGrd= 4 IRadAn=           0 IRanWt=          -1 IRanGd=           0 AccXCQ= 0.00D+00.
 Generated NRdTot=       0 NPtTot=           0 NUsed=           0 NTot=          32
 NSgBfM=    53    53    53    53    53 MxSgAt=     7 MxSgA2=     7.
 Leave Link  302 at Thu Mar 19 18:10:20 2026, MaxMem=   536870912 cpu:         1.0
 (Enter C:\G09W\l303.exe)
 DipDrv:  MaxL=1.
 Leave Link  303 at Thu Mar 19 18:10:20 2026, MaxMem=   536870912 cpu:         0.0
 (Enter C:\G09W\l401.exe)
 ExpMin= 1.61D-01 ExpMax= 3.05D+03 ExpMxC= 4.57D+02 IAcc=1 IRadAn=         1 AccDes= 0.00D+00
 Harris functional with IExCor=  402 and IRadAn=       1 diagonalized for initial guess.
 HarFok:  IExCor=  402 AccDes= 0.00D+00 IRadAn=         1 IDoV= 1 UseB2=F ITyADJ=14
 ICtDFT=  3500011 ScaDFX=  1.000000  1.000000  1.000000  1.000000
 FoFCou: FMM=F IPFlag=           0 FMFlag=      100000 FMFlg1=           0
         NFxFlg=           0 DoJE=T BraDBF=F KetDBF=T FulRan=T
         wScrn=  0.000000 ICntrl=     500 IOpCl=  0 I1Cent=   200000004 NGrid=           0
         NMat0=    1 NMatS0=      1 NMatT0=    0 NMatD0=    1 NMtDS0=    0 NMtDT0=    0
 Petite list used in FoFCou.
 Harris En= -116.711532373623    
 JPrj=0 DoOrth=F DoCkMO=F.
 Leave Link  401 at Thu Mar 19 18:10:20 2026, MaxMem=   536870912 cpu:         0.0
 (Enter C:\G09W\l502.exe)
 Closed shell SCF:
 Using DIIS extrapolation, IDIIS=  1040.
 Integral symmetry usage will be decided dynamically.
 Keep R1 ints in memory in canonical form, NReq=1925466.
 IVT=       27700 IEndB=       27700 NGot=   536870912 MDV=   535818617
 LenX=   535818617 LenY=   535815367
 Requested convergence on RMS density matrix=1.00D-08 within 128 cycles.
 Requested convergence on MAX density matrix=1.00D-06.
 Requested convergence on             energy=1.00D-06.
 No special actions if energy rises.
 FoFCou: FMM=F IPFlag=           0 FMFlag=           0 FMFlg1=           0
         NFxFlg=           0 DoJE=F BraDBF=F KetDBF=F FulRan=T
         wScrn=  0.000000 ICntrl=     600 IOpCl=  0 I1Cent=           0 NGrid=           0
         NMat0=    1 NMatS0=   1431 NMatT0=    0 NMatD0=    1 NMtDS0=    0 NMtDT0=    0
 Symmetry not used in FoFCou.
 Integral accuracy reduced to 1.0D-05 until final iterations.

 Cycle   1  Pass 0  IDiag  1:
 E= -116.538278615124    
 DIIS: error= 3.53D-02 at cycle   1 NSaved=   1.
 NSaved= 1 IEnMin= 1 EnMin= -116.538278615124     IErMin= 1 ErrMin= 3.53D-02
 ErrMax= 3.53D-02  0.00D+00 EMaxC= 1.00D-01 BMatC= 1.02D-01 BMatP= 1.02D-01
 IDIUse=3 WtCom= 6.47D-01 WtEn= 3.53D-01
 Coeff-Com:  0.100D+01
 Coeff-En:   0.100D+01
 Coeff:      0.100D+01
 Gap=     0.313 Goal=   None    Shift=    0.000
 GapD=    0.313 DampG=1.000 DampE=0.500 DampFc=0.5000 IDamp=-1.
 Damping current iteration by 5.00D-01
 RMSDP=1.19D-02 MaxDP=1.21D-01              OVMax= 1.53D-01

 Cycle   2  Pass 0  IDiag  1:
 E= -116.596927643883     Delta-E=       -0.058649028759 Rises=F Damp=T
 DIIS: error= 7.00D-03 at cycle   2 NSaved=   2.
 NSaved= 2 IEnMin= 2 EnMin= -116.596927643883     IErMin= 2 ErrMin= 7.00D-03
 ErrMax= 7.00D-03  0.00D+00 EMaxC= 1.00D-01 BMatC= 2.96D-03 BMatP= 1.02D-01
 IDIUse=3 WtCom= 9.30D-01 WtEn= 7.00D-02
 Coeff-Com: -0.483D-01 0.105D+01
 Coeff-En:   0.000D+00 0.100D+01
 Coeff:     -0.449D-01 0.104D+01
 Gap=     0.328 Goal=   None    Shift=    0.000
 RMSDP=3.14D-03 MaxDP=4.63D-02 DE=-5.86D-02 OVMax= 7.30D-02

 Cycle   3  Pass 0  IDiag  1:
 E= -116.652895466076     Delta-E=       -0.055967822193 Rises=F Damp=F
 DIIS: error= 1.66D-03 at cycle   3 NSaved=   3.
 NSaved= 3 IEnMin= 3 EnMin= -116.652895466076     IErMin= 3 ErrMin= 1.66D-03
 ErrMax= 1.66D-03  0.00D+00 EMaxC= 1.00D-01 BMatC= 2.63D-04 BMatP= 2.96D-03
 IDIUse=3 WtCom= 9.83D-01 WtEn= 1.66D-02
 Coeff-Com: -0.228D-01 0.186D+00 0.837D+00
 Coeff-En:   0.000D+00 0.000D+00 0.100D+01
 Coeff:     -0.224D-01 0.183D+00 0.839D+00
 Gap=     0.326 Goal=   None    Shift=    0.000
 RMSDP=6.25D-04 MaxDP=5.92D-03 DE=-5.60D-02 OVMax= 7.88D-03

 Cycle   4  Pass 0  IDiag  1:
 E= -116.652880634064     Delta-E=        0.000014832012 Rises=F Damp=F
 DIIS: error= 1.79D-03 at cycle   4 NSaved=   4.
 NSaved= 4 IEnMin= 3 EnMin= -116.652895466076     IErMin= 3 ErrMin= 1.66D-03
 ErrMax= 1.79D-03  0.00D+00 EMaxC= 1.00D-01 BMatC= 2.66D-04 BMatP= 2.63D-04
 IDIUse=3 WtCom= 9.82D-01 WtEn= 1.79D-02
 Coeff-Com: -0.111D-01 0.656D-01 0.522D+00 0.423D+00
 Coeff-En:   0.000D+00 0.000D+00 0.513D+00 0.487D+00
 Coeff:     -0.109D-01 0.645D-01 0.522D+00 0.424D+00
 Gap=     0.325 Goal=   None    Shift=    0.000
 RMSDP=3.47D-04 MaxDP=4.27D-03 DE= 1.48D-05 OVMax= 8.02D-03

 Cycle   5  Pass 0  IDiag  1:
 E= -116.653115095721     Delta-E=       -0.000234461657 Rises=F Damp=F
 DIIS: error= 9.12D-04 at cycle   5 NSaved=   5.
 NSaved= 5 IEnMin= 5 EnMin= -116.653115095721     IErMin= 5 ErrMin= 9.12D-04
 ErrMax= 9.12D-04  0.00D+00 EMaxC= 1.00D-01 BMatC= 3.41D-05 BMatP= 2.63D-04
 IDIUse=3 WtCom= 9.91D-01 WtEn= 9.12D-03
 Coeff-Com: -0.307D-02 0.110D-01 0.219D+00 0.288D+00 0.485D+00
 Coeff-En:   0.000D+00 0.000D+00 0.000D+00 0.122D+00 0.878D+00
 Coeff:     -0.305D-02 0.109D-01 0.217D+00 0.286D+00 0.489D+00
 Gap=     0.325 Goal=   None    Shift=    0.000
 RMSDP=9.56D-05 MaxDP=1.43D-03 DE=-2.34D-04 OVMax= 2.51D-03

 Cycle   6  Pass 0  IDiag  1:
 E= -116.653148422951     Delta-E=       -0.000033327229 Rises=F Damp=F
 DIIS: error= 1.57D-04 at cycle   6 NSaved=   6.
 NSaved= 6 IEnMin= 6 EnMin= -116.653148422951     IErMin= 6 ErrMin= 1.57D-04
 ErrMax= 1.57D-04  0.00D+00 EMaxC= 1.00D-01 BMatC= 1.01D-06 BMatP= 3.41D-05
 IDIUse=3 WtCom= 9.98D-01 WtEn= 1.57D-03
 Coeff-Com: -0.589D-03 0.659D-03 0.662D-01 0.108D+00 0.240D+00 0.586D+00
 Coeff-En:   0.000D+00 0.000D+00 0.000D+00 0.000D+00 0.000D+00 0.100D+01
 Coeff:     -0.588D-03 0.658D-03 0.661D-01 0.108D+00 0.239D+00 0.587D+00
 Gap=     0.325 Goal=   None    Shift=    0.000
 RMSDP=2.34D-05 MaxDP=2.30D-04 DE=-3.33D-05 OVMax= 3.17D-04

 Cycle   7  Pass 0  IDiag  1:
 E= -116.653149462823     Delta-E=       -0.000001039872 Rises=F Damp=F
 DIIS: error= 4.97D-06 at cycle   7 NSaved=   7.
 NSaved= 7 IEnMin= 7 EnMin= -116.653149462823     IErMin= 7 ErrMin= 4.97D-06
 ErrMax= 4.97D-06  0.00D+00 EMaxC= 1.00D-01 BMatC= 1.86D-09 BMatP= 1.01D-06
 IDIUse=1 WtCom= 1.00D+00 WtEn= 0.00D+00
 Coeff-Com:  0.965D-05-0.226D-03 0.392D-02 0.624D-02 0.189D-01 0.657D-01
 Coeff-Com:  0.905D+00
 Coeff:      0.965D-05-0.226D-03 0.392D-02 0.624D-02 0.189D-01 0.657D-01
 Coeff:      0.905D+00
 Gap=     0.325 Goal=   None    Shift=    0.000
 RMSDP=1.39D-06 MaxDP=1.44D-05 DE=-1.04D-06 OVMax= 1.71D-05

 Initial convergence to 1.0D-05 achieved.  Increase integral accuracy.
 Cycle   8  Pass 1  IDiag  1:
 E= -116.653157871934     Delta-E=       -0.000008409111 Rises=F Damp=F
 DIIS: error= 2.64D-06 at cycle   1 NSaved=   1.
 NSaved= 1 IEnMin= 1 EnMin= -116.653157871934     IErMin= 1 ErrMin= 2.64D-06
 ErrMax= 2.64D-06  0.00D+00 EMaxC= 1.00D-01 BMatC= 5.22D-10 BMatP= 5.22D-10
 IDIUse=1 WtCom= 1.00D+00 WtEn= 0.00D+00
 Coeff-Com:  0.100D+01
 Coeff:      0.100D+01
 Gap=     0.325 Goal=   None    Shift=    0.000
 RMSDP=1.39D-06 MaxDP=1.44D-05 DE=-8.41D-06 OVMax= 1.33D-05

 Cycle   9  Pass 1  IDiag  1:
 E= -116.653157872441     Delta-E=       -0.000000000507 Rises=F Damp=F
 DIIS: error= 1.90D-06 at cycle   2 NSaved=   2.
 NSaved= 2 IEnMin= 2 EnMin= -116.653157872441     IErMin= 2 ErrMin= 1.90D-06
 ErrMax= 1.90D-06  0.00D+00 EMaxC= 1.00D-01 BMatC= 1.59D-10 BMatP= 5.22D-10
 IDIUse=1 WtCom= 1.00D+00 WtEn= 0.00D+00
 Coeff-Com:  0.273D+00 0.727D+00
 Coeff:      0.273D+00 0.727D+00
 Gap=     0.325 Goal=   None    Shift=    0.000
 RMSDP=4.87D-07 MaxDP=6.28D-06 DE=-5.07D-10 OVMax= 1.28D-05

 Cycle  10  Pass 1  IDiag  1:
 E= -116.653157872269     Delta-E=        0.000000000171 Rises=F Damp=F
 DIIS: error= 2.54D-06 at cycle   3 NSaved=   3.
 NSaved= 3 IEnMin= 2 EnMin= -116.653157872441     IErMin= 2 ErrMin= 1.90D-06
 ErrMax= 2.54D-06  0.00D+00 EMaxC= 1.00D-01 BMatC= 3.29D-10 BMatP= 1.59D-10
 IDIUse=1 WtCom= 1.00D+00 WtEn= 0.00D+00
 Coeff-Com: -0.256D-01 0.601D+00 0.425D+00
 Coeff:     -0.256D-01 0.601D+00 0.425D+00
 Gap=     0.325 Goal=   None    Shift=    0.000
 RMSDP=3.10D-07 MaxDP=3.69D-06 DE= 1.71D-10 OVMax= 7.68D-06

 Cycle  11  Pass 1  IDiag  1:
 E= -116.653157872600     Delta-E=       -0.000000000331 Rises=F Damp=F
 DIIS: error= 1.17D-07 at cycle   4 NSaved=   4.
 NSaved= 4 IEnMin= 4 EnMin= -116.653157872600     IErMin= 4 ErrMin= 1.17D-07
 ErrMax= 1.17D-07  0.00D+00 EMaxC= 1.00D-01 BMatC= 1.13D-12 BMatP= 1.59D-10
 IDIUse=1 WtCom= 1.00D+00 WtEn= 0.00D+00
 Coeff-Com: -0.142D-01 0.246D+00 0.187D+00 0.581D+00
 Coeff:     -0.142D-01 0.246D+00 0.187D+00 0.581D+00
 Gap=     0.325 Goal=   None    Shift=    0.000
 RMSDP=2.18D-08 MaxDP=3.23D-07 DE=-3.31D-10 OVMax= 3.93D-07

 Cycle  12  Pass 1  IDiag  1:
 E= -116.653157872603     Delta-E=       -0.000000000003 Rises=F Damp=F
 DIIS: error= 2.51D-08 at cycle   5 NSaved=   5.
 NSaved= 5 IEnMin= 5 EnMin= -116.653157872603     IErMin= 5 ErrMin= 2.51D-08
 ErrMax= 2.51D-08  0.00D+00 EMaxC= 1.00D-01 BMatC= 4.91D-14 BMatP= 1.13D-12
 IDIUse=1 WtCom= 1.00D+00 WtEn= 0.00D+00
 Coeff-Com: -0.258D-02 0.309D-01 0.289D-01 0.194D+00 0.749D+00
 Coeff:     -0.258D-02 0.309D-01 0.289D-01 0.194D+00 0.749D+00
 Gap=     0.325 Goal=   None    Shift=    0.000
 RMSDP=4.67D-09 MaxDP=6.06D-08 DE=-2.84D-12 OVMax= 6.89D-08

 SCF Done:  E(RB3LYP) =  -116.653157873     A.U. after   12 cycles
            NFock= 12  Conv=0.47D-08     -V/T= 2.0099
 KE= 1.155071950782D+02 PE=-3.871572375244D+02 EE= 9.629355693790D+01
 Leave Link  502 at Thu Mar 19 18:10:22 2026, MaxMem=   536870912 cpu:         2.0
 (Enter C:\G09W\l601.exe)
 Copying SCF densities to generalized density rwf, IOpCl= 0 IROHF=0.

 **********************************************************************

            Population analysis using the SCF density.

 **********************************************************************

 Orbital symmetries:
       Occupied  (A) (A) (A) (A) (A) (A) (A) (A) (A) (A) (A)
       Virtual   (A) (A) (A) (A) (A) (A) (A) (A) (A) (A) (A) (A)
                 (A) (A) (A) (A) (A) (A) (A) (A) (A) (A) (A) (A)
                 (A) (A) (A) (A) (A) (A) (A) (A) (A) (A) (A) (A)
                 (A) (A) (A) (A) (A) (A)
 The electronic state is 1-A.
 Alpha  occ. eigenvalues --  -10.20607 -10.18243 -10.17019  -0.77379  -0.69535
 Alpha  occ. eigenvalues --   -0.52353  -0.44803  -0.42994  -0.42994  -0.26036
 Alpha  occ. eigenvalues --   -0.26036
 Alpha virt. eigenvalues --    0.06436   0.06436   0.11014   0.13350   0.18325
 Alpha virt. eigenvalues --    0.18325   0.23734   0.40388   0.46337   0.52797
 Alpha virt. eigenvalues --    0.52797   0.62891   0.62891   0.72581   0.72581
 Alpha virt. eigenvalues --    0.76945   0.79056   0.86088   0.86088   0.90981
 Alpha virt. eigenvalues --    1.01699   1.20574   1.41456   1.41456   1.48427
 Alpha virt. eigenvalues --    1.55571   1.55571   1.56725   1.87546   1.87546
 Alpha virt. eigenvalues --    1.95222   1.95222   2.10365   2.22730   2.22730
 Alpha virt. eigenvalues --    2.60668   2.71673   2.71673   3.36027   4.09982
 Alpha virt. eigenvalues --    4.25495   4.63970
          Condensed to atoms (all electrons):
               1          2          3          4          5          6
     1  C    5.276579   0.388970  -0.174518   0.359274   0.359272   0.359279
     2  C    0.388970   4.575858   0.791531  -0.023688  -0.023688  -0.023690
     3  C   -0.174518   0.791531   5.499699   0.001360   0.001361   0.001359
     4  H    0.359274  -0.023688   0.001360   0.540225  -0.029907  -0.029907
     5  H    0.359272  -0.023688   0.001361  -0.029907   0.540228  -0.029907
     6  H    0.359279  -0.023690   0.001359  -0.029907  -0.029907   0.540221
     7  H    0.002497   0.005884   0.346894  -0.000012  -0.000012  -0.000012
               7
     1  C    0.002497
     2  C    0.005884
     3  C    0.346894
     4  H   -0.000012
     5  H   -0.000012
     6  H   -0.000012
     7  H    0.462508
 Mulliken charges:
               1
     1  C   -0.571352
     2  C    0.308823
     3  C   -0.467686
     4  H    0.182654
     5  H    0.182653
     6  H    0.182656
     7  H    0.182253
 Sum of Mulliken charges =   0.00000
 Mulliken charges with hydrogens summed into heavy atoms:
               1
     1  C   -0.023389
     2  C    0.308823
     3  C   -0.285434
 Electronic spatial extent (au):  <R**2>=            177.7374
 Charge=              0.0000 electrons
 Dipole moment (field-independent basis, Debye):
    X=             -0.6575    Y=              0.0532    Z=              0.1774  Tot=              0.6831
 Quadrupole moment (field-independent basis, Debye-Ang):
   XX=            -14.1482   YY=            -18.9832   ZZ=            -18.6608
   XY=             -0.3940   XZ=             -1.3132   YZ=              0.1063
 Traceless Quadrupole moment (field-independent basis, Debye-Ang):
   XX=              3.1159   YY=             -1.7192   ZZ=             -1.3968
   XY=             -0.3940   XZ=             -1.3132   YZ=              0.1063
 Octapole moment (field-independent basis, Debye-Ang**2):
  XXX=              7.8086  YYY=              1.0898  ZZZ=              1.3314  XYY=             -2.1053
  XXY=             -1.0305  XXZ=             -3.4049  XZZ=             -1.3610  YZZ=             -0.4108
  YYZ=              0.9019  XYZ=              0.2095
 Hexadecapole moment (field-independent basis, Debye-Ang**3):
 XXXX=           -149.2858 YYYY=            -26.4973 ZZZZ=            -37.2086 XXXY=              3.9246
 XXXZ=             12.9342 YYYX=              5.3365 YYYZ=             -1.3060 ZZZX=             20.3088
 ZZZY=             -2.3400 XXYY=            -34.4348 XXZZ=            -33.4428 YYZZ=            -10.4690
 XXYZ=              0.4411 YYXZ=              6.3442 ZZXY=              2.6172
 N-N= 5.870332763573D+01 E-N=-3.871572366724D+02  KE= 1.155071950782D+02
 No NMR shielding tensors so no spin-rotation constants.
 Leave Link  601 at Thu Mar 19 18:10:22 2026, MaxMem=   536870912 cpu:         0.0
 (Enter C:\G09W\l701.exe)
 Compute integral first derivatives.
 ... and contract with generalized density number  0.
 Leave Link  701 at Thu Mar 19 18:10:23 2026, MaxMem=   536870912 cpu:         1.0
 (Enter C:\G09W\l702.exe)
 L702 exits ... SP integral derivatives will be done elsewhere.
 Leave Link  702 at Thu Mar 19 18:10:23 2026, MaxMem=   536870912 cpu:         0.0
 (Enter C:\G09W\l703.exe)
 Compute integral first derivatives, UseDBF=F ICtDFT=           0.
 Integral derivatives from FoFJK, PRISM(SPDF).
 Calling FoFJK, ICntrl=      2127 FMM=F ISym2X=0 I1Cent= 0 IOpClX= 0 NMat=1 NMatS=1 NMatT=0.
 FoFJK:  IHMeth= 1 ICntrl=    2127 DoSepK=F KAlg= 0 I1Cent=   0 FoldK=F
 IRaf=         0 NMat=   1 IRICut=       1 DoRegI=T DoRafI=F ISym2E= 0.
 FoFCou: FMM=F IPFlag=           0 FMFlag=      100000 FMFlg1=         800
         NFxFlg=           0 DoJE=F BraDBF=F KetDBF=F FulRan=T
         wScrn=  0.000000 ICntrl=    2127 IOpCl=  0 I1Cent=           0 NGrid=           0
         NMat0=    1 NMatS0=      1 NMatT0=    0 NMatD0=    1 NMtDS0=    0 NMtDT0=    0
 Symmetry not used in FoFCou.
 Leave Link  703 at Thu Mar 19 18:10:23 2026, MaxMem=   536870912 cpu:         0.0
 (Enter C:\G09W\l716.exe)
 Dipole        =-2.58692197D-01 2.09403117D-02 6.97988094D-02
 ***** Axes restored to original set *****
 -------------------------------------------------------------------
 Center     Atomic                   Forces (Hartrees/Bohr)
 Number     Number              X              Y              Z
 -------------------------------------------------------------------
      1        6           0.004646016   -0.000512187   -0.000639233
      2        6          -0.014648585    0.001616356    0.002023871
      3        6           0.013421946   -0.001478597   -0.001854692
      4        1          -0.001329797    0.000340759   -0.000797266
      5        1          -0.001277274   -0.000805099    0.000482876
      6        1          -0.001045688    0.000864048    0.000817164
      7        1           0.000233382   -0.000025281   -0.000032720
 -------------------------------------------------------------------
 Cartesian Forces:  Max     0.014648585 RMS     0.004561316
 Leave Link  716 at Thu Mar 19 18:10:24 2026, MaxMem=   536870912 cpu:         0.0
 (Enter C:\G09W\l103.exe)

 GradGradGradGradGradGradGradGradGradGradGradGradGradGradGradGradGradGrad
 Berny optimization.
 FormGI is forming the generalized inverse of G from B-inverse, IUseBI=4.
 Internal  Forces:  Max     0.013866938 RMS     0.003168142
 Search for a local minimum.
 Step number   1 out of a maximum of   30
 All quantities printed in internal units (Hartrees-Bohrs-Radians)
 RMS Force = .31681D-02 SwitMx=.10000D-02 MixMth= 1
 Mixed Optimization -- RFO/linear search
 Second derivative matrix not updated -- first step.
 The second derivative matrix:
                          R1        R2        R3        R4        R5
           R1           0.36555
           R2           0.00000   0.34336
           R3           0.00000   0.00000   0.34336
           R4           0.00000   0.00000   0.00000   0.34336
           R5           0.00000   0.00000   0.00000   0.00000   1.04470
           R6           0.00000   0.00000   0.00000   0.00000   0.00000
           A1           0.00000   0.00000   0.00000   0.00000   0.00000
           A2           0.00000   0.00000   0.00000   0.00000   0.00000
           A3           0.00000   0.00000   0.00000   0.00000   0.00000
           A4           0.00000   0.00000   0.00000   0.00000   0.00000
           A5           0.00000   0.00000   0.00000   0.00000   0.00000
           A6           0.00000   0.00000   0.00000   0.00000   0.00000
           A7           0.00000   0.00000   0.00000   0.00000   0.00000
           A8           0.00000   0.00000   0.00000   0.00000   0.00000
           A9           0.00000   0.00000   0.00000   0.00000   0.00000
           A10          0.00000   0.00000   0.00000   0.00000   0.00000
           D1           0.00000   0.00000   0.00000   0.00000   0.00000
           D2           0.00000   0.00000   0.00000   0.00000   0.00000
           D3           0.00000   0.00000   0.00000   0.00000   0.00000
           D4           0.00000   0.00000   0.00000   0.00000   0.00000
                          R6        A1        A2        A3        A4
           R6           0.37778
           A1           0.00000   0.16000
           A2           0.00000   0.00000   0.16000
           A3           0.00000   0.00000   0.00000   0.16000
           A4           0.00000   0.00000   0.00000   0.00000   0.16000
           A5           0.00000   0.00000   0.00000   0.00000   0.00000
           A6           0.00000   0.00000   0.00000   0.00000   0.00000
           A7           0.00000   0.00000   0.00000   0.00000   0.00000
           A8           0.00000   0.00000   0.00000   0.00000   0.00000
           A9           0.00000   0.00000   0.00000   0.00000   0.00000
           A10          0.00000   0.00000   0.00000   0.00000   0.00000
           D1           0.00000   0.00000   0.00000   0.00000   0.00000
           D2           0.00000   0.00000   0.00000   0.00000   0.00000
           D3           0.00000   0.00000   0.00000   0.00000   0.00000
           D4           0.00000   0.00000   0.00000   0.00000   0.00000
                          A5        A6        A7        A8        A9
           A5           0.16000
           A6           0.00000   0.16000
           A7           0.00000   0.00000   0.04725
           A8           0.00000   0.00000   0.00000   0.00556
           A9           0.00000   0.00000   0.00000   0.00000   0.04725
           A10          0.00000   0.00000   0.00000   0.00000   0.00000
           D1           0.00000   0.00000   0.00000   0.00000   0.00000
           D2           0.00000   0.00000   0.00000   0.00000   0.00000
           D3           0.00000   0.00000   0.00000   0.00000   0.00000
           D4           0.00000   0.00000   0.00000   0.00000   0.00000
                          A10       D1        D2        D3        D4
           A10          0.00556
           D1           0.00000   0.00230
           D2           0.00000   0.00000   0.00230
           D3           0.00000   0.00000   0.00000   0.00230
           D4           0.00000   0.00000   0.00000   0.00000   0.00230
 ITU=  0
     Eigenvalues ---    0.00556   0.00556   0.04725   0.04725   0.05068
     Eigenvalues ---    0.05963   0.08406   0.16000   0.16000   0.34336
     Eigenvalues ---    0.34336   0.34336   0.36555   0.37778   1.04470
 RFO step:  Lambda=-2.27255148D-04 EMin= 5.56144678D-03
 Linear search not attempted -- first point.
 Iteration  1 RMS(Cart)=  0.00530166 RMS(Int)=  0.00002396
 Iteration  2 RMS(Cart)=  0.00001574 RMS(Int)=  0.00001502
 Iteration  3 RMS(Cart)=  0.00000000 RMS(Int)=  0.00001502
 ITry= 1 IFail=0 DXMaxC= 1.28D-02 DCOld= 1.00D+10 DXMaxT= 3.00D-01 DXLimC= 3.00D+00 Rises=F
 Variable       Old X    -DE/DX   Delta X   Delta X   Delta X     New X
                                 (Linear)    (Quad)   (Total)
    R1        2.76522  -0.00101   0.00000  -0.00276  -0.00276   2.76246
    R2        2.06766   0.00137   0.00000   0.00399   0.00399   2.07165
    R3        2.06766   0.00137   0.00000   0.00398   0.00398   2.07164
    R4        2.06766   0.00137   0.00000   0.00398   0.00398   2.07164
    R5        2.26900   0.01387   0.00000   0.01327   0.01327   2.28227
    R6        2.01390   0.00024   0.00000   0.00063   0.00063   2.01453
    A1        1.93430   0.00019   0.00000   0.00477   0.00478   1.93909
    A2        1.93430   0.00030   0.00000   0.00482   0.00483   1.93913
    A3        1.93430   0.00057   0.00000   0.00486   0.00486   1.93916
    A4        1.88638  -0.00010   0.00000  -0.00498  -0.00503   1.88135
    A5        1.88638  -0.00048   0.00000  -0.00508  -0.00511   1.88128
    A6        1.88638  -0.00054   0.00000  -0.00509  -0.00511   1.88127
    A7        3.14159  -0.00001   0.00000  -0.00011  -0.00011   3.14149
    A8        3.14159   0.00000   0.00000  -0.00007  -0.00007   3.14153
    A9        3.14160   0.00000   0.00000   0.00000   0.00000   3.14160
   A10        3.14160   0.00000   0.00000   0.00001   0.00001   3.14161
    D1       -2.12278  -0.00036   0.00000  -0.00564  -0.00563  -2.12841
    D2        2.12278   0.00028   0.00000   0.00561   0.00559   2.12837
    D3       -2.12278  -0.00038   0.00000  -0.00566  -0.00564  -2.12842
    D4        2.03763  -0.00066   0.00000  -0.01126  -0.01124   2.02639
         Item               Value     Threshold  Converged?
 Maximum Force            0.013867     0.000450     NO 
 RMS     Force            0.003168     0.000300     NO 
 Maximum Displacement     0.012834     0.001800     NO 
 RMS     Displacement     0.005307     0.001200     NO 
 Predicted change in Energy=-1.136093D-04
 Lowest energy point so far.  Saving SCF results.
 GradGradGradGradGradGradGradGradGradGradGradGradGradGradGradGradGradGrad

 Leave Link  103 at Thu Mar 19 18:10:24 2026, MaxMem=   536870912 cpu:         0.0
 (Enter C:\G09W\l202.exe)
                          Input orientation:                          
 ---------------------------------------------------------------------
 Center     Atomic      Atomic             Coordinates (Angstroms)
 Number     Number       Type             X           Y           Z
 ---------------------------------------------------------------------
      1          6           0       -0.940135    0.103463    0.429165
      2          6           0        0.499415   -0.054876    0.230215
      3          6           0        1.688724   -0.185814    0.065890
      4          1           0       -1.442605    0.360065   -0.510775
      5          1           0       -1.390344   -0.821501    0.808048
      6          1           0       -1.153561    0.900119    1.151373
      7          1           0        2.738506   -0.301455   -0.079128
 ---------------------------------------------------------------------
                    Distance matrix (angstroms):
                    1          2          3          4          5
     1  C    0.000000
     2  C    1.461833   0.000000
     3  C    2.669560   1.207727   0.000000
     4  H    1.096270   2.119594   3.230440   0.000000
     5  H    1.096265   2.119620   3.230410   1.771475   0.000000
     6  H    1.096264   2.119641   3.230497   1.771423   1.771415
     7  H    3.735602   2.273768   1.066041   4.255069   4.254988
                    6          7
     6  H    0.000000
     7  H    4.255126   0.000000
 Stoichiometry    C3H4
 Framework group  C1[X(C3H4)]
 Deg. of freedom    15
 Full point group                 C1      NOp   1
 RotChk:  IX=0 Diff= 9.54D-01
 Largest Abelian subgroup         C1      NOp   1
 Largest concise Abelian subgroup C1      NOp   1
                         Standard orientation:                         
 ---------------------------------------------------------------------
 Center     Atomic      Atomic             Coordinates (Angstroms)
 Number     Number       Type             X           Y           Z
 ---------------------------------------------------------------------
      1          6           0       -1.242719   -0.000017   -0.000013
      2          6           0        0.219115    0.000051    0.000033
      3          6           0        1.426842   -0.000002    0.000001
      4          1           0       -1.637428    0.915228   -0.456455
      5          1           0       -1.637383   -0.852955   -0.564403
      6          1           0       -1.637501   -0.062353    1.020798
      7          1           0        2.492883   -0.000111   -0.000060
 ---------------------------------------------------------------------
 Rotational constants (GHZ):    159.8012752      8.5158409      8.5158220
 Leave Link  202 at Thu Mar 19 18:10:24 2026, MaxMem=   536870912 cpu:         0.0
 (Enter C:\G09W\l301.exe)
 Standard basis: 6-31G(d) (6D, 7F)
 Ernie: Thresh=  0.10000D-02 Tol=  0.10000D-05 Strict=F.
 There are    53 symmetry adapted cartesian basis functions of A   symmetry.
 There are    53 symmetry adapted basis functions of A   symmetry.
    53 basis functions,   100 primitive gaussians,    53 cartesian basis functions
    11 alpha electrons       11 beta electrons
       nuclear repulsion energy        58.5668577530 Hartrees.
 IExCor=  402 DFT=T Ex+Corr=B3LYP ExCW=0 ScaHFX=  0.200000
 ScaDFX=  0.800000  0.720000  1.000000  0.810000 ScalE2=  1.000000  1.000000
 IRadAn=      0 IRanWt=     -1 IRanGd=            0 ICorTp=0 IEmpDi=  4
 NAtoms=    7 NActive=    7 NUniq=    7 SFac= 1.00D+00 NAtFMM=   60 NAOKFM=F Big=F
 Integral buffers will be    131072 words long.
 Raffenetti 2 integral format.
 Two-electron integral symmetry is turned on.
 Leave Link  301 at Thu Mar 19 18:10:24 2026, MaxMem=   536870912 cpu:         0.0
 (Enter C:\G09W\l302.exe)
 NPDir=0 NMtPBC=     1 NCelOv=     1 NCel=       1 NClECP=     1 NCelD=      1
         NCelK=      1 NCelE2=     1 NClLst=     1 CellRange=     0.0.
 One-electron integrals computed using PRISM.
 NBasis=    53 RedAO= T EigKep=  5.20D-04  NBF=    53
 NBsUse=    53 1.00D-06 EigRej= -1.00D+00 NBFU=    53
 Precomputing XC quadrature grid using
 IXCGrd= 4 IRadAn=           0 IRanWt=          -1 IRanGd=           0 AccXCQ= 0.00D+00.
 Generated NRdTot=       0 NPtTot=           0 NUsed=           0 NTot=          32
 NSgBfM=    53    53    53    53    53 MxSgAt=     7 MxSgA2=     7.
 Leave Link  302 at Thu Mar 19 18:10:24 2026, MaxMem=   536870912 cpu:         0.0
 (Enter C:\G09W\l303.exe)
 DipDrv:  MaxL=1.
 Leave Link  303 at Thu Mar 19 18:10:24 2026, MaxMem=   536870912 cpu:         0.0
 (Enter C:\G09W\l401.exe)
 Initial guess from the checkpoint file:  "propyne_rdkit.chk"
 B after Tr=     0.000000    0.000000    0.000000
         Rot=    0.941347    0.308439    0.112324   -0.078192 Ang=  39.44 deg.
 Guess basis will be translated and rotated to current coordinates.
 JPrj=2 DoOrth=T DoCkMO=T.
 Leave Link  401 at Thu Mar 19 18:10:25 2026, MaxMem=   536870912 cpu:         0.0
 (Enter C:\G09W\l502.exe)
 Closed shell SCF:
 Using DIIS extrapolation, IDIIS=  1040.
 Integral symmetry usage will be decided dynamically.
 Keep R1 ints in memory in canonical form, NReq=1925466.
 IVT=       27700 IEndB=       27700 NGot=   536870912 MDV=   535818617
 LenX=   535818617 LenY=   535815367
 Requested convergence on RMS density matrix=1.00D-08 within 128 cycles.
 Requested convergence on MAX density matrix=1.00D-06.
 Requested convergence on             energy=1.00D-06.
 No special actions if energy rises.
 FoFCou: FMM=F IPFlag=           0 FMFlag=           0 FMFlg1=           0
         NFxFlg=           0 DoJE=F BraDBF=F KetDBF=F FulRan=T
         wScrn=  0.000000 ICntrl=     600 IOpCl=  0 I1Cent=           0 NGrid=           0
         NMat0=    1 NMatS0=   1431 NMatT0=    0 NMatD0=    1 NMtDS0=    0 NMtDT0=    0
 Symmetry not used in FoFCou.

 Cycle   1  Pass 1  IDiag  1:
 E= -116.653239511925    
 DIIS: error= 7.03D-04 at cycle   1 NSaved=   1.
 NSaved= 1 IEnMin= 1 EnMin= -116.653239511925     IErMin= 1 ErrMin= 7.03D-04
 ErrMax= 7.03D-04  0.00D+00 EMaxC= 1.00D-01 BMatC= 2.02D-05 BMatP= 2.02D-05
 IDIUse=3 WtCom= 9.93D-01 WtEn= 7.03D-03
 Coeff-Com:  0.100D+01
 Coeff-En:   0.100D+01
 Coeff:      0.100D+01
 Gap=     2.434 Goal=   None    Shift=    0.000
 RMSDP=3.24D-04 MaxDP=4.97D-03              OVMax= 2.30D-03

 Cycle   2  Pass 1  IDiag  1:
 E= -116.653257656355     Delta-E=       -0.000018144430 Rises=F Damp=F
 DIIS: error= 4.38D-04 at cycle   2 NSaved=   2.
 NSaved= 2 IEnMin= 2 EnMin= -116.653257656355     IErMin= 2 ErrMin= 4.38D-04
 ErrMax= 4.38D-04  0.00D+00 EMaxC= 1.00D-01 BMatC= 9.18D-06 BMatP= 2.02D-05
 IDIUse=3 WtCom= 9.96D-01 WtEn= 4.38D-03
 Coeff-Com:  0.384D+00 0.616D+00
 Coeff-En:   0.314D-01 0.969D+00
 Coeff:      0.382D+00 0.618D+00
 Gap=     0.321 Goal=   None    Shift=    0.000
 RMSDP=7.17D-05 MaxDP=1.05D-03 DE=-1.81D-05 OVMax= 1.50D-03

 Cycle   3  Pass 1  IDiag  1:
 E= -116.653264897141     Delta-E=       -0.000007240786 Rises=F Damp=F
 DIIS: error= 2.05D-04 at cycle   3 NSaved=   3.
 NSaved= 3 IEnMin= 3 EnMin= -116.653264897141     IErMin= 3 ErrMin= 2.05D-04
 ErrMax= 2.05D-04  0.00D+00 EMaxC= 1.00D-01 BMatC= 2.33D-06 BMatP= 9.18D-06
 IDIUse=3 WtCom= 9.98D-01 WtEn= 2.05D-03
 Coeff-Com:  0.124D+00 0.345D+00 0.531D+00
 Coeff-En:   0.000D+00 0.156D+00 0.844D+00
 Coeff:      0.124D+00 0.344D+00 0.532D+00
 Gap=     0.321 Goal=   None    Shift=    0.000
 RMSDP=3.96D-05 MaxDP=4.99D-04 DE=-7.24D-06 OVMax= 9.61D-04

 Cycle   4  Pass 1  IDiag  1:
 E= -116.653266308554     Delta-E=       -0.000001411414 Rises=F Damp=F
 DIIS: error= 1.45D-04 at cycle   4 NSaved=   4.
 NSaved= 4 IEnMin= 4 EnMin= -116.653266308554     IErMin= 4 ErrMin= 1.45D-04
 ErrMax= 1.45D-04  0.00D+00 EMaxC= 1.00D-01 BMatC= 9.65D-07 BMatP= 2.33D-06
 IDIUse=3 WtCom= 9.99D-01 WtEn= 1.45D-03
 Coeff-Com:  0.496D-02 0.109D+00 0.402D+00 0.484D+00
 Coeff-En:   0.000D+00 0.000D+00 0.330D+00 0.670D+00
 Coeff:      0.495D-02 0.109D+00 0.402D+00 0.484D+00
 Gap=     0.321 Goal=   None    Shift=    0.000
 RMSDP=1.68D-05 MaxDP=2.41D-04 DE=-1.41D-06 OVMax= 3.99D-04

 Cycle   5  Pass 1  IDiag  1:
 E= -116.653267297769     Delta-E=       -0.000000989215 Rises=F Damp=F
 DIIS: error= 1.48D-05 at cycle   5 NSaved=   5.
 NSaved= 5 IEnMin= 5 EnMin= -116.653267297769     IErMin= 5 ErrMin= 1.48D-05
 ErrMax= 1.48D-05  0.00D+00 EMaxC= 1.00D-01 BMatC= 7.09D-09 BMatP= 9.65D-07
 IDIUse=1 WtCom= 1.00D+00 WtEn= 0.00D+00
 Coeff-Com: -0.252D-02 0.113D-01 0.806D-01 0.146D+00 0.764D+00
 Coeff:     -0.252D-02 0.113D-01 0.806D-01 0.146D+00 0.764D+00
 Gap=     0.321 Goal=   None    Shift=    0.000
 RMSDP=2.34D-06 MaxDP=2.33D-05 DE=-9.89D-07 OVMax= 2.66D-05

 Cycle   6  Pass 1  IDiag  1:
 E= -116.653267304670     Delta-E=       -0.000000006901 Rises=F Damp=F
 DIIS: error= 3.80D-06 at cycle   6 NSaved=   6.
 NSaved= 6 IEnMin= 6 EnMin= -116.653267304670     IErMin= 6 ErrMin= 3.80D-06
 ErrMax= 3.80D-06  0.00D+00 EMaxC= 1.00D-01 BMatC= 5.47D-10 BMatP= 7.09D-09
 IDIUse=1 WtCom= 1.00D+00 WtEn= 0.00D+00
 Coeff-Com: -0.135D-02 0.202D-02 0.248D-01 0.561D-01 0.349D+00 0.570D+00
 Coeff:     -0.135D-02 0.202D-02 0.248D-01 0.561D-01 0.349D+00 0.570D+00
 Gap=     0.321 Goal=   None    Shift=    0.000
 RMSDP=4.23D-07 MaxDP=6.28D-06 DE=-6.90D-09 OVMax= 7.01D-06

 Cycle   7  Pass 1  IDiag  1:
 E= -116.653267305196     Delta-E=       -0.000000000526 Rises=F Damp=F
 DIIS: error= 5.16D-07 at cycle   7 NSaved=   7.
 NSaved= 7 IEnMin= 7 EnMin= -116.653267305196     IErMin= 7 ErrMin= 5.16D-07
 ErrMax= 5.16D-07  0.00D+00 EMaxC= 1.00D-01 BMatC= 1.75D-11 BMatP= 5.47D-10
 IDIUse=1 WtCom= 1.00D+00 WtEn= 0.00D+00
 Coeff-Com: -0.319D-03-0.364D-03 0.138D-02 0.824D-02 0.610D-01 0.190D+00
 Coeff-Com:  0.740D+00
 Coeff:     -0.319D-03-0.364D-03 0.138D-02 0.824D-02 0.610D-01 0.190D+00
 Coeff:      0.740D+00
 Gap=     0.321 Goal=   None    Shift=    0.000
 RMSDP=8.16D-08 MaxDP=9.00D-07 DE=-5.26D-10 OVMax= 1.02D-06

 Cycle   8  Pass 1  IDiag  1:
 E= -116.653267305213     Delta-E=       -0.000000000017 Rises=F Damp=F
 DIIS: error= 3.81D-08 at cycle   8 NSaved=   8.
 NSaved= 8 IEnMin= 8 EnMin= -116.653267305213     IErMin= 8 ErrMin= 3.81D-08
 ErrMax= 3.81D-08  0.00D+00 EMaxC= 1.00D-01 BMatC= 7.70D-14 BMatP= 1.75D-11
 IDIUse=1 WtCom= 1.00D+00 WtEn= 0.00D+00
 Coeff-Com:  0.167D-04-0.258D-04-0.506D-03-0.705D-03-0.475D-02-0.156D-02
 Coeff-Com:  0.372D-01 0.970D+00
 Coeff:      0.167D-04-0.258D-04-0.506D-03-0.705D-03-0.475D-02-0.156D-02
 Coeff:      0.372D-01 0.970D+00
 Gap=     0.321 Goal=   None    Shift=    0.000
 RMSDP=8.95D-09 MaxDP=1.35D-07 DE=-1.71D-11 OVMax= 7.32D-08

 SCF Done:  E(RB3LYP) =  -116.653267305     A.U. after    8 cycles
            NFock=  8  Conv=0.90D-08     -V/T= 2.0103
 KE= 1.154681221786D+02 PE=-3.868469357083D+02 EE= 9.615868847151D+01
 Leave Link  502 at Thu Mar 19 18:10:27 2026, MaxMem=   536870912 cpu:         2.0
 (Enter C:\G09W\l701.exe)
 Compute integral first derivatives.
 ... and contract with generalized density number  0.
 Leave Link  701 at Thu Mar 19 18:10:27 2026, MaxMem=   536870912 cpu:         0.0
 (Enter C:\G09W\l702.exe)
 L702 exits ... SP integral derivatives will be done elsewhere.
 Leave Link  702 at Thu Mar 19 18:10:27 2026, MaxMem=   536870912 cpu:         0.0
 (Enter C:\G09W\l703.exe)
 Compute integral first derivatives, UseDBF=F ICtDFT=           0.
 Integral derivatives from FoFJK, PRISM(SPDF).
 Calling FoFJK, ICntrl=      2127 FMM=F ISym2X=0 I1Cent= 0 IOpClX= 0 NMat=1 NMatS=1 NMatT=0.
 FoFJK:  IHMeth= 1 ICntrl=    2127 DoSepK=F KAlg= 0 I1Cent=   0 FoldK=F
 IRaf=         0 NMat=   1 IRICut=       1 DoRegI=T DoRafI=F ISym2E= 0.
 FoFCou: FMM=F IPFlag=           0 FMFlag=      100000 FMFlg1=         800
         NFxFlg=           0 DoJE=F BraDBF=F KetDBF=F FulRan=T
         wScrn=  0.000000 ICntrl=    2127 IOpCl=  0 I1Cent=           0 NGrid=           0
         NMat0=    1 NMatS0=      1 NMatT0=    0 NMatD0=    1 NMtDS0=    0 NMtDT0=    0
 Symmetry not used in FoFCou.
 Leave Link  703 at Thu Mar 19 18:10:28 2026, MaxMem=   536870912 cpu:         1.0
 (Enter C:\G09W\l716.exe)
 Dipole        =-2.70786786D-01-5.86381453D-05-3.27195324D-05
 ***** Axes restored to original set *****
 -------------------------------------------------------------------
 Center     Atomic                   Forces (Hartrees/Bohr)
 Number     Number              X              Y              Z
 -------------------------------------------------------------------
      1        6           0.001452587   -0.000146804   -0.000203151
      2        6           0.000384691   -0.000054243   -0.000048027
      3        6          -0.001219459    0.000134208    0.000169366
      4        1          -0.000226427    0.000028870   -0.000016821
      5        1          -0.000221325   -0.000024961    0.000041778
      6        1          -0.000200096    0.000063368    0.000062278
      7        1           0.000030028   -0.000000438   -0.000005422
 -------------------------------------------------------------------
 Cartesian Forces:  Max     0.001452587 RMS     0.000437114
 Leave Link  716 at Thu Mar 19 18:10:28 2026, MaxMem=   536870912 cpu:         0.0
 (Enter C:\G09W\l103.exe)

 GradGradGradGradGradGradGradGradGradGradGradGradGradGradGradGradGradGrad
 Berny optimization.
 Using GEDIIS/GDIIS optimizer.
 FormGI is forming the generalized inverse of G from B-inverse, IUseBI=4.
 Internal  Forces:  Max     0.001208102 RMS     0.000336825
 Search for a local minimum.
 Step number   2 out of a maximum of   30
 All quantities printed in internal units (Hartrees-Bohrs-Radians)
 RMS Force = .33683D-03 SwitMx=.10000D-02 MixMth= 2
 Mixed Optimization -- En-DIIS/RFO-DIIS
 Update second derivatives using D2CorX and points    1    2
 DE= -1.09D-04 DEPred=-1.14D-04 R= 9.63D-01
 TightC=F SS=  1.41D+00  RLast= 2.45D-02 DXNew= 5.0454D-01 7.3476D-02
 Trust test= 9.63D-01 RLast= 2.45D-02 DXMaxT set to 3.00D-01
 The second derivative matrix:
                          R1        R2        R3        R4        R5
           R1           0.36124
           R2           0.00505   0.34174
           R3           0.00504  -0.00163   0.34173
           R4           0.00504  -0.00162  -0.00163   0.34174
           R5           0.04913  -0.00328  -0.00341  -0.00333   1.17053
           R6           0.00088  -0.00033  -0.00033  -0.00033  -0.00113
           A1           0.00328  -0.00385  -0.00384  -0.00384  -0.03745
           A2           0.00324  -0.00343  -0.00343  -0.00343  -0.03237
           A3           0.00308  -0.00229  -0.00229  -0.00229  -0.01849
           A4          -0.00351   0.00447   0.00446   0.00446   0.04452
           A5          -0.00332   0.00295   0.00295   0.00295   0.02603
           A6          -0.00328   0.00269   0.00269   0.00269   0.02289
           A7           0.00000  -0.00011  -0.00011  -0.00011  -0.00136
           A8           0.00001  -0.00005  -0.00005  -0.00005  -0.00059
           A9           0.00000  -0.00001  -0.00001  -0.00001  -0.00017
           A10          0.00000   0.00000   0.00000   0.00000  -0.00002
           D1           0.00017  -0.00137  -0.00137  -0.00137  -0.01679
           D2          -0.00012   0.00107   0.00107   0.00107   0.01312
           D3           0.00018  -0.00146  -0.00145  -0.00145  -0.01782
           D4           0.00030  -0.00253  -0.00252  -0.00252  -0.03094
                          R6        A1        A2        A3        A4
           R6           0.37771
           A1          -0.00067   0.15751
           A2          -0.00060  -0.00246   0.15760
           A3          -0.00041  -0.00234  -0.00220   0.15820
           A4           0.00078   0.00267   0.00266   0.00261   0.15718
           A5           0.00053   0.00252   0.00241   0.00208  -0.00278
           A6           0.00048   0.00250   0.00237   0.00199  -0.00277
           A7          -0.00002   0.00000  -0.00001  -0.00003  -0.00001
           A8          -0.00001   0.00000  -0.00001  -0.00002   0.00000
           A9           0.00000   0.00000   0.00000  -0.00001   0.00000
           A10          0.00000   0.00000   0.00000   0.00000   0.00000
           D1          -0.00023  -0.00012  -0.00022  -0.00048   0.00004
           D2           0.00018   0.00009   0.00017   0.00037  -0.00002
           D3          -0.00024  -0.00013  -0.00024  -0.00051   0.00004
           D4          -0.00042  -0.00022  -0.00041  -0.00088   0.00006
                          A5        A6        A7        A8        A9
           A5           0.15765
           A6          -0.00228   0.15781
           A7           0.00002   0.00003   0.04725
           A8           0.00001   0.00002   0.00000   0.00556
           A9           0.00000   0.00000   0.00000   0.00000   0.04725
           A10          0.00000   0.00000   0.00000   0.00000   0.00000
           D1           0.00038   0.00044   0.00003   0.00001   0.00000
           D2          -0.00029  -0.00034  -0.00002  -0.00001   0.00000
           D3           0.00041   0.00047   0.00003   0.00001   0.00000
           D4           0.00070   0.00081   0.00005   0.00002   0.00001
                          A10       D1        D2        D3        D4
           A10          0.00556
           D1           0.00000   0.00262
           D2           0.00000  -0.00025   0.00250
           D3           0.00000   0.00034  -0.00027   0.00266
           D4           0.00000   0.00059  -0.00046   0.00062   0.00339
 ITU=  1  0
 Use linear search instead of GDIIS.
     Eigenvalues ---    0.00556   0.00556   0.04725   0.04725   0.05029
     Eigenvalues ---    0.05786   0.08347   0.15888   0.16000   0.33509
     Eigenvalues ---    0.34336   0.34336   0.36182   0.37776   1.17376
 RFO step:  Lambda=-4.17361008D-06 EMin= 5.56144621D-03
 Quartic linear search produced a step of -0.02915.
 Iteration  1 RMS(Cart)=  0.00087163 RMS(Int)=  0.00000118
 Iteration  2 RMS(Cart)=  0.00000095 RMS(Int)=  0.00000041
 ITry= 1 IFail=0 DXMaxC= 2.17D-03 DCOld= 1.00D+10 DXMaxT= 3.00D-01 DXLimC= 3.00D+00 Rises=F
 Variable       Old X    -DE/DX   Delta X   Delta X   Delta X     New X
                                 (Linear)    (Quad)   (Total)
    R1        2.76246  -0.00082   0.00008  -0.00230  -0.00222   2.76025
    R2        2.07165   0.00012  -0.00012   0.00054   0.00043   2.07207
    R3        2.07164   0.00013  -0.00012   0.00055   0.00043   2.07207
    R4        2.07164   0.00013  -0.00012   0.00054   0.00043   2.07206
    R5        2.28227  -0.00121  -0.00039  -0.00049  -0.00088   2.28140
    R6        2.01453   0.00003  -0.00002   0.00011   0.00009   2.01462
    A1        1.93909   0.00005  -0.00014   0.00132   0.00119   1.94027
    A2        1.93913   0.00007  -0.00014   0.00129   0.00115   1.94028
    A3        1.93916   0.00013  -0.00014   0.00126   0.00112   1.94028
    A4        1.88135  -0.00003   0.00015  -0.00140  -0.00125   1.88010
    A5        1.88128  -0.00011   0.00015  -0.00136  -0.00121   1.88007
    A6        1.88127  -0.00012   0.00015  -0.00135  -0.00120   1.88007
    A7        3.14149   0.00002   0.00000   0.00042   0.00042   3.14191
    A8        3.14153   0.00001   0.00000   0.00159   0.00160   3.14312
    A9        3.14160   0.00000   0.00000   0.00006   0.00006   3.14165
   A10        3.14161   0.00000   0.00000   0.00006   0.00006   3.14168
    D1       -2.12841  -0.00008   0.00016  -0.00152  -0.00136  -2.12977
    D2        2.12837   0.00007  -0.00016   0.00153   0.00137   2.12974
    D3       -2.12842  -0.00009   0.00016  -0.00150  -0.00133  -2.12975
    D4        2.02639  -0.00015   0.00033  -0.00303  -0.00270   2.02369
         Item               Value     Threshold  Converged?
 Maximum Force            0.001208     0.000450     NO 
 RMS     Force            0.000337     0.000300     NO 
 Maximum Displacement     0.002169     0.001800     NO 
 RMS     Displacement     0.000872     0.001200     YES
 Predicted change in Energy=-2.206842D-06
 Lowest energy point so far.  Saving SCF results.
 GradGradGradGradGradGradGradGradGradGradGradGradGradGradGradGradGradGrad

 Leave Link  103 at Thu Mar 19 18:10:28 2026, MaxMem=   536870912 cpu:         0.0
 (Enter C:\G09W\l202.exe)
                          Input orientation:                          
 ---------------------------------------------------------------------
 Center     Atomic      Atomic             Coordinates (Angstroms)
 Number     Number       Type             X           Y           Z
 ---------------------------------------------------------------------
      1          6           0       -0.938988    0.103304    0.429009
      2          6           0        0.499365   -0.055522    0.230408
      3          6           0        1.688219   -0.186422    0.066170
      4          1           0       -1.442480    0.360124   -0.510587
      5          1           0       -1.390856   -0.821080    0.807989
      6          1           0       -1.153415    0.900060    1.151152
      7          1           0        2.738153   -0.300462   -0.079353
 ---------------------------------------------------------------------
                    Distance matrix (angstroms):
                    1          2          3          4          5
     1  C    0.000000
     2  C    1.460659   0.000000
     3  C    2.667922   1.207262   0.000000
     4  H    1.096495   2.119574   3.229959   0.000000
     5  H    1.096493   2.119579   3.230137   1.771031   0.000000
     6  H    1.096490   2.119572   3.229939   1.771007   1.771006
     7  H    3.734009   2.273350   1.066089   4.254413   4.255248
                    6          7
     6  H    0.000000
     7  H    4.254374   0.000000
 Stoichiometry    C3H4
 Framework group  C1[X(C3H4)]
 Deg. of freedom    15
 Full point group                 C1      NOp   1
 RotChk:  IX=3 Diff= 1.06D-01
 Largest Abelian subgroup         C1      NOp   1
 Largest concise Abelian subgroup C1      NOp   1
                         Standard orientation:                         
 ---------------------------------------------------------------------
 Center     Atomic      Atomic             Coordinates (Angstroms)
 Number     Number       Type             X           Y           Z
 ---------------------------------------------------------------------
      1          6           0       -1.241707    0.000100    0.000060
      2          6           0        0.218952   -0.000227   -0.000147
      3          6           0        1.426214   -0.000180   -0.000102
      4          1           0       -1.637559    0.878413   -0.523550
      5          1           0       -1.637961   -0.892441   -0.498588
      6          1           0       -1.637535    0.014602    1.022508
      7          1           0        2.492302    0.001271    0.000759
 ---------------------------------------------------------------------
 Rotational constants (GHZ):    159.8775063      8.5235725      8.5235640
 Leave Link  202 at Thu Mar 19 18:10:28 2026, MaxMem=   536870912 cpu:         0.0
 (Enter C:\G09W\l301.exe)
 Standard basis: 6-31G(d) (6D, 7F)
 Ernie: Thresh=  0.10000D-02 Tol=  0.10000D-05 Strict=F.
 There are    53 symmetry adapted cartesian basis functions of A   symmetry.
 There are    53 symmetry adapted basis functions of A   symmetry.
    53 basis functions,   100 primitive gaussians,    53 cartesian basis functions
    11 alpha electrons       11 beta electrons
       nuclear repulsion energy        58.5872213777 Hartrees.
 IExCor=  402 DFT=T Ex+Corr=B3LYP ExCW=0 ScaHFX=  0.200000
 ScaDFX=  0.800000  0.720000  1.000000  0.810000 ScalE2=  1.000000  1.000000
 IRadAn=      0 IRanWt=     -1 IRanGd=            0 ICorTp=0 IEmpDi=  4
 NAtoms=    7 NActive=    7 NUniq=    7 SFac= 1.00D+00 NAtFMM=   60 NAOKFM=F Big=F
 Integral buffers will be    131072 words long.
 Raffenetti 2 integral format.
 Two-electron integral symmetry is turned on.
 Leave Link  301 at Thu Mar 19 18:10:28 2026, MaxMem=   536870912 cpu:         0.0
 (Enter C:\G09W\l302.exe)
 NPDir=0 NMtPBC=     1 NCelOv=     1 NCel=       1 NClECP=     1 NCelD=      1
         NCelK=      1 NCelE2=     1 NClLst=     1 CellRange=     0.0.
 One-electron integrals computed using PRISM.
 NBasis=    53 RedAO= T EigKep=  5.18D-04  NBF=    53
 NBsUse=    53 1.00D-06 EigRej= -1.00D+00 NBFU=    53
 Precomputing XC quadrature grid using
 IXCGrd= 4 IRadAn=           0 IRanWt=          -1 IRanGd=           0 AccXCQ= 0.00D+00.
 Generated NRdTot=       0 NPtTot=           0 NUsed=           0 NTot=          32
 NSgBfM=    53    53    53    53    53 MxSgAt=     7 MxSgA2=     7.
 Leave Link  302 at Thu Mar 19 18:10:28 2026, MaxMem=   536870912 cpu:         0.0
 (Enter C:\G09W\l303.exe)
 DipDrv:  MaxL=1.
 Leave Link  303 at Thu Mar 19 18:10:28 2026, MaxMem=   536870912 cpu:         0.0
 (Enter C:\G09W\l401.exe)
 Initial guess from the checkpoint file:  "propyne_rdkit.chk"
 B after Tr=     0.000000    0.000000    0.000000
         Rot=    0.999296    0.037527   -0.000009    0.000010 Ang=   4.30 deg.
 Guess basis will be translated and rotated to current coordinates.
 JPrj=2 DoOrth=T DoCkMO=T.
 Leave Link  401 at Thu Mar 19 18:10:29 2026, MaxMem=   536870912 cpu:         0.0
 (Enter C:\G09W\l502.exe)
 Closed shell SCF:
 Using DIIS extrapolation, IDIIS=  1040.
 Integral symmetry usage will be decided dynamically.
 Keep R1 ints in memory in canonical form, NReq=1925466.
 IVT=       27700 IEndB=       27700 NGot=   536870912 MDV=   535818617
 LenX=   535818617 LenY=   535815367
 Requested convergence on RMS density matrix=1.00D-08 within 128 cycles.
 Requested convergence on MAX density matrix=1.00D-06.
 Requested convergence on             energy=1.00D-06.
 No special actions if energy rises.
 FoFCou: FMM=F IPFlag=           0 FMFlag=           0 FMFlg1=           0
         NFxFlg=           0 DoJE=F BraDBF=F KetDBF=F FulRan=T
         wScrn=  0.000000 ICntrl=     600 IOpCl=  0 I1Cent=           0 NGrid=           0
         NMat0=    1 NMatS0=   1431 NMatT0=    0 NMatD0=    1 NMtDS0=    0 NMtDT0=    0
 Symmetry not used in FoFCou.

 Cycle   1  Pass 1  IDiag  1:
 E= -116.653269123042    
 DIIS: error= 8.93D-05 at cycle   1 NSaved=   1.
 NSaved= 1 IEnMin= 1 EnMin= -116.653269123042     IErMin= 1 ErrMin= 8.93D-05
 ErrMax= 8.93D-05  0.00D+00 EMaxC= 1.00D-01 BMatC= 5.76D-07 BMatP= 5.76D-07
 IDIUse=1 WtCom= 1.00D+00 WtEn= 0.00D+00
 Coeff-Com:  0.100D+01
 Coeff:      0.100D+01
 Gap=     2.448 Goal=   None    Shift=    0.000
 RMSDP=9.93D-05 MaxDP=1.27D-03              OVMax= 3.45D-04

 Cycle   2  Pass 1  IDiag  1:
 E= -116.653270064176     Delta-E=       -0.000000941134 Rises=F Damp=F
 DIIS: error= 2.92D-05 at cycle   2 NSaved=   2.
 NSaved= 2 IEnMin= 2 EnMin= -116.653270064176     IErMin= 2 ErrMin= 2.92D-05
 ErrMax= 2.92D-05  0.00D+00 EMaxC= 1.00D-01 BMatC= 5.18D-08 BMatP= 5.76D-07
 IDIUse=1 WtCom= 1.00D+00 WtEn= 0.00D+00
 Coeff-Com:  0.108D+00 0.892D+00
 Coeff:      0.108D+00 0.892D+00
 Gap=     0.321 Goal=   None    Shift=    0.000
 RMSDP=8.59D-06 MaxDP=1.33D-04 DE=-9.41D-07 OVMax= 2.12D-04

 Cycle   3  Pass 1  IDiag  1:
 E= -116.653269991130     Delta-E=        0.000000073046 Rises=F Damp=F
 DIIS: error= 5.19D-05 at cycle   3 NSaved=   3.
 NSaved= 3 IEnMin= 2 EnMin= -116.653270064176     IErMin= 2 ErrMin= 2.92D-05
 ErrMax= 5.19D-05  0.00D+00 EMaxC= 1.00D-01 BMatC= 1.26D-07 BMatP= 5.18D-08
 IDIUse=1 WtCom= 1.00D+00 WtEn= 0.00D+00
 Coeff-Com: -0.398D-03 0.617D+00 0.384D+00
 Coeff:     -0.398D-03 0.617D+00 0.384D+00
 Gap=     0.321 Goal=   None    Shift=    0.000
 RMSDP=6.77D-06 MaxDP=8.92D-05 DE= 7.30D-08 OVMax= 1.63D-04

 Cycle   4  Pass 1  IDiag  1:
 E= -116.653270112397     Delta-E=       -0.000000121266 Rises=F Damp=F
 DIIS: error= 1.01D-05 at cycle   4 NSaved=   4.
 NSaved= 4 IEnMin= 4 EnMin= -116.653270112397     IErMin= 4 ErrMin= 1.01D-05
 ErrMax= 1.01D-05  0.00D+00 EMaxC= 1.00D-01 BMatC= 6.64D-09 BMatP= 5.18D-08
 IDIUse=1 WtCom= 1.00D+00 WtEn= 0.00D+00
 Coeff-Com: -0.138D-01 0.254D+00 0.233D+00 0.527D+00
 Coeff:     -0.138D-01 0.254D+00 0.233D+00 0.527D+00
 Gap=     0.321 Goal=   None    Shift=    0.000
 RMSDP=1.49D-06 MaxDP=2.18D-05 DE=-1.21D-07 OVMax= 3.33D-05

 Cycle   5  Pass 1  IDiag  1:
 E= -116.653270119262     Delta-E=       -0.000000006866 Rises=F Damp=F
 DIIS: error= 1.45D-06 at cycle   5 NSaved=   5.
 NSaved= 5 IEnMin= 5 EnMin= -116.653270119262     IErMin= 5 ErrMin= 1.45D-06
 ErrMax= 1.45D-06  0.00D+00 EMaxC= 1.00D-01 BMatC= 9.18D-11 BMatP= 6.64D-09
 IDIUse=1 WtCom= 1.00D+00 WtEn= 0.00D+00
 Coeff-Com: -0.402D-02 0.297D-01 0.462D-01 0.162D+00 0.766D+00
 Coeff:     -0.402D-02 0.297D-01 0.462D-01 0.162D+00 0.766D+00
 Gap=     0.321 Goal=   None    Shift=    0.000
 RMSDP=2.64D-07 MaxDP=2.49D-06 DE=-6.87D-09 OVMax= 3.93D-06

 Cycle   6  Pass 1  IDiag  1:
 E= -116.653270119361     Delta-E=       -0.000000000098 Rises=F Damp=F
 DIIS: error= 3.89D-07 at cycle   6 NSaved=   6.
 NSaved= 6 IEnMin= 6 EnMin= -116.653270119361     IErMin= 6 ErrMin= 3.89D-07
 ErrMax= 3.89D-07  0.00D+00 EMaxC= 1.00D-01 BMatC= 5.56D-12 BMatP= 9.18D-11
 IDIUse=1 WtCom= 1.00D+00 WtEn= 0.00D+00
 Coeff-Com: -0.792D-03 0.108D-02 0.812D-02 0.385D-01 0.278D+00 0.675D+00
 Coeff:     -0.792D-03 0.108D-02 0.812D-02 0.385D-01 0.278D+00 0.675D+00
 Gap=     0.321 Goal=   None    Shift=    0.000
 RMSDP=4.98D-08 MaxDP=8.07D-07 DE=-9.83D-11 OVMax= 8.86D-07

 Cycle   7  Pass 1  IDiag  1:
 E= -116.653270119366     Delta-E=       -0.000000000005 Rises=F Damp=F
 DIIS: error= 1.18D-07 at cycle   7 NSaved=   7.
 NSaved= 7 IEnMin= 7 EnMin= -116.653270119366     IErMin= 7 ErrMin= 1.18D-07
 ErrMax= 1.18D-07  0.00D+00 EMaxC= 1.00D-01 BMatC= 6.05D-13 BMatP= 5.56D-12
 IDIUse=1 WtCom= 1.00D+00 WtEn= 0.00D+00
 Coeff-Com: -0.480D-04-0.136D-02 0.126D-04 0.401D-02 0.544D-01 0.283D+00
 Coeff-Com:  0.660D+00
 Coeff:     -0.480D-04-0.136D-02 0.126D-04 0.401D-02 0.544D-01 0.283D+00
 Coeff:      0.660D+00
 Gap=     0.321 Goal=   None    Shift=    0.000
 RMSDP=1.65D-08 MaxDP=1.99D-07 DE=-5.00D-12 OVMax= 2.33D-07

 Cycle   8  Pass 1  IDiag  1:
 E= -116.653270119366     Delta-E=        0.000000000000 Rises=F Damp=F
 DIIS: error= 8.01D-09 at cycle   8 NSaved=   8.
 NSaved= 8 IEnMin= 8 EnMin= -116.653270119366     IErMin= 8 ErrMin= 8.01D-09
 ErrMax= 8.01D-09  0.00D+00 EMaxC= 1.00D-01 BMatC= 4.94D-15 BMatP= 6.05D-13
 IDIUse=1 WtCom= 1.00D+00 WtEn= 0.00D+00
 Coeff-Com:  0.208D-04-0.294D-03-0.426D-03-0.903D-03-0.247D-02 0.163D-01
 Coeff-Com:  0.918D-01 0.896D+00
 Coeff:      0.208D-04-0.294D-03-0.426D-03-0.903D-03-0.247D-02 0.163D-01
 Coeff:      0.918D-01 0.896D+00
 Gap=     0.321 Goal=   None    Shift=    0.000
 RMSDP=1.94D-09 MaxDP=1.65D-08 DE=-5.68D-14 OVMax= 2.70D-08

 SCF Done:  E(RB3LYP) =  -116.653270119     A.U. after    8 cycles
            NFock=  8  Conv=0.19D-08     -V/T= 2.0102
 KE= 1.154712765691D+02 PE=-3.868901926440D+02 EE= 9.617842457785D+01
 Leave Link  502 at Thu Mar 19 18:10:30 2026, MaxMem=   536870912 cpu:         1.0
 (Enter C:\G09W\l701.exe)
 Compute integral first derivatives.
 ... and contract with generalized density number  0.
 Leave Link  701 at Thu Mar 19 18:10:31 2026, MaxMem=   536870912 cpu:         1.0
 (Enter C:\G09W\l702.exe)
 L702 exits ... SP integral derivatives will be done elsewhere.
 Leave Link  702 at Thu Mar 19 18:10:31 2026, MaxMem=   536870912 cpu:         0.0
 (Enter C:\G09W\l703.exe)
 Compute integral first derivatives, UseDBF=F ICtDFT=           0.
 Integral derivatives from FoFJK, PRISM(SPDF).
 Calling FoFJK, ICntrl=      2127 FMM=F ISym2X=0 I1Cent= 0 IOpClX= 0 NMat=1 NMatS=1 NMatT=0.
 FoFJK:  IHMeth= 1 ICntrl=    2127 DoSepK=F KAlg= 0 I1Cent=   0 FoldK=F
 IRaf=         0 NMat=   1 IRICut=       1 DoRegI=T DoRafI=F ISym2E= 0.
 FoFCou: FMM=F IPFlag=           0 FMFlag=      100000 FMFlg1=         800
         NFxFlg=           0 DoJE=F BraDBF=F KetDBF=F FulRan=T
         wScrn=  0.000000 ICntrl=    2127 IOpCl=  0 I1Cent=           0 NGrid=           0
         NMat0=    1 NMatS0=      1 NMatT0=    0 NMatD0=    1 NMtDS0=    0 NMtDT0=    0
 Symmetry not used in FoFCou.
 Leave Link  703 at Thu Mar 19 18:10:31 2026, MaxMem=   536870912 cpu:         0.0
 (Enter C:\G09W\l716.exe)
 Dipole        =-2.70247703D-01 6.90257364D-04 4.16487097D-04
 ***** Axes restored to original set *****
 -------------------------------------------------------------------
 Center     Atomic                   Forces (Hartrees/Bohr)
 Number     Number              X              Y              Z
 -------------------------------------------------------------------
      1        6           0.000380214   -0.000069048   -0.000038959
      2        6           0.000045130    0.000020735   -0.000018499
      3        6          -0.000200275    0.000065373    0.000014960
      4        1          -0.000068567    0.000003302    0.000016499
      5        1          -0.000078309    0.000015346    0.000006211
      6        1          -0.000063467    0.000002252    0.000006028
      7        1          -0.000014726   -0.000037960    0.000013760
 -------------------------------------------------------------------
 Cartesian Forces:  Max     0.000380214 RMS     0.000101318
 Leave Link  716 at Thu Mar 19 18:10:32 2026, MaxMem=   536870912 cpu:         0.0
 (Enter C:\G09W\l103.exe)

 GradGradGradGradGradGradGradGradGradGradGradGradGradGradGradGradGradGrad
 Berny optimization.
 Using GEDIIS/GDIIS optimizer.
 FormGI is forming the generalized inverse of G from B-inverse, IUseBI=4.
 Internal  Forces:  Max     0.000218602 RMS     0.000071950
 Search for a local minimum.
 Step number   3 out of a maximum of   30
 All quantities printed in internal units (Hartrees-Bohrs-Radians)
 RMS Force = .71950D-04 SwitMx=.10000D-02 MixMth= 2
 Mixed Optimization -- En-DIIS/RFO-DIIS
 Swapping is turned off.
 Update second derivatives using D2CorX and points    1    2    3
 DE= -2.81D-06 DEPred=-2.21D-06 R= 1.28D+00
 TightC=F SS=  1.41D+00  RLast= 5.50D-03 DXNew= 5.0454D-01 1.6486D-02
 Trust test= 1.28D+00 RLast= 5.50D-03 DXMaxT set to 3.00D-01
 The second derivative matrix:
                          R1        R2        R3        R4        R5
           R1           0.32845
           R2           0.00833   0.34163
           R3           0.00894  -0.00185   0.34139
           R4           0.00812  -0.00169  -0.00181   0.34171
           R5           0.00720   0.00105   0.00166   0.00077   1.11589
           R6          -0.00154   0.00026   0.00023   0.00028  -0.00388
           A1           0.03391  -0.00904  -0.00914  -0.00904  -0.00048
           A2           0.03201  -0.00829  -0.00839  -0.00829   0.00238
           A3           0.01972  -0.00484  -0.00496  -0.00481   0.00185
           A4          -0.03970   0.01069   0.01078   0.01070   0.00092
           A5          -0.02572   0.00655   0.00667   0.00654  -0.00118
           A6          -0.02538   0.00624   0.00636   0.00623  -0.00396
           A7          -0.01351   0.00258   0.00254   0.00262  -0.01725
           A8          -0.01568   0.00302   0.00298   0.00306  -0.01911
           A9           0.00073  -0.00015  -0.00015  -0.00015   0.00070
           A10          0.00007  -0.00001  -0.00001  -0.00001   0.00006
           D1           0.01107  -0.00348  -0.00345  -0.00350  -0.00387
           D2          -0.00972   0.00293   0.00290   0.00295   0.00175
           D3           0.01083  -0.00351  -0.00349  -0.00353  -0.00520
           D4           0.02054  -0.00644  -0.00639  -0.00648  -0.00695
                          R6        A1        A2        A3        A4
           R6           0.37807
           A1          -0.00170   0.14886
           A2          -0.00154  -0.01078   0.14961
           A3          -0.00054  -0.00964  -0.00914   0.15316
           A4           0.00212   0.01206   0.01172   0.01090   0.14708
           A5           0.00097   0.01073   0.01024   0.00820  -0.01194
           A6           0.00091   0.01061   0.01011   0.00803  -0.01184
           A7           0.00105   0.00007   0.00018   0.00164   0.00042
           A8           0.00115   0.00059   0.00069   0.00214  -0.00013
           A9          -0.00004  -0.00014  -0.00014  -0.00015   0.00014
           A10          0.00000  -0.00002  -0.00002  -0.00002   0.00002
           D1          -0.00099  -0.00078  -0.00093  -0.00208   0.00042
           D2           0.00085   0.00064   0.00077   0.00176  -0.00033
           D3          -0.00099  -0.00078  -0.00094  -0.00207   0.00043
           D4          -0.00184  -0.00142  -0.00170  -0.00384   0.00075
                          A5        A6        A7        A8        A9
           A5           0.15046
           A6          -0.00939   0.15078
           A7          -0.00121  -0.00120   0.04957
           A8          -0.00174  -0.00174   0.00237   0.00795
           A9           0.00015   0.00015  -0.00004  -0.00003   0.04725
           A10          0.00002   0.00002   0.00000   0.00000   0.00000
           D1           0.00176   0.00181  -0.00147  -0.00148   0.00002
           D2          -0.00149  -0.00153   0.00131   0.00132  -0.00002
           D3           0.00176   0.00181  -0.00142  -0.00144   0.00002
           D4           0.00325   0.00334  -0.00273  -0.00276   0.00004
                          A10       D1        D2        D3        D4
           A10          0.00556
           D1           0.00000   0.00354
           D2           0.00000  -0.00107   0.00323
           D3           0.00000   0.00123  -0.00107   0.00352
           D4           0.00000   0.00231  -0.00200   0.00229   0.00659
 ITU=  1  1  0
     Eigenvalues ---    0.00556   0.00590   0.04302   0.04725   0.05077
     Eigenvalues ---    0.05402   0.08291   0.15603   0.16007   0.32193
     Eigenvalues ---    0.34336   0.34337   0.34897   0.37811   1.11670
 En-DIIS/RFO-DIIS IScMMF=        0 using points:     3    2
 RFO step:  Lambda=-3.33653042D-07.
 NNeg= 0 NP= 2 Switch=  2.50D-03 Rises=F DC=  2.81D-06 SmlDif=  1.00D-05
 RMS Error=  0.3570703269D-03 NUsed= 2 EDIIS=F
 DidBck=F Rises=F RFO-DIIS coefs:    1.27023   -0.27023
 Iteration  1 RMS(Cart)=  0.00598111 RMS(Int)=  0.00005799
 Iteration  2 RMS(Cart)=  0.00005731 RMS(Int)=  0.00000114
 Iteration  3 RMS(Cart)=  0.00000000 RMS(Int)=  0.00000114
 ITry= 1 IFail=0 DXMaxC= 1.67D-02 DCOld= 1.00D+10 DXMaxT= 3.00D-01 DXLimC= 3.00D+00 Rises=F
 Variable       Old X    -DE/DX   Delta X   Delta X   Delta X     New X
                                 (Linear)    (Quad)   (Total)
    R1        2.76025  -0.00017  -0.00060  -0.00122  -0.00182   2.75842
    R2        2.07207   0.00002   0.00011   0.00023   0.00035   2.07242
    R3        2.07207   0.00002   0.00012   0.00025   0.00036   2.07243
    R4        2.07206   0.00002   0.00012   0.00023   0.00034   2.07241
    R5        2.28140  -0.00022  -0.00024  -0.00032  -0.00056   2.28084
    R6        2.01462  -0.00001   0.00002  -0.00001   0.00001   2.01463
    A1        1.94027   0.00002   0.00032   0.00086   0.00118   1.94146
    A2        1.94028   0.00003   0.00031   0.00100   0.00131   1.94159
    A3        1.94028   0.00004   0.00030   0.00080   0.00110   1.94137
    A4        1.88010  -0.00001  -0.00034  -0.00098  -0.00132   1.87878
    A5        1.88007  -0.00003  -0.00033  -0.00091  -0.00124   1.87883
    A6        1.88007  -0.00005  -0.00032  -0.00093  -0.00125   1.87882
    A7        3.14191  -0.00007   0.00011  -0.00179  -0.00167   3.14024
    A8        3.14312  -0.00008   0.00043  -0.01831  -0.01788   3.12524
    A9        3.14165   0.00000   0.00001   0.00012   0.00013   3.14178
   A10        3.14168   0.00000   0.00002   0.00010   0.00012   3.14180
    D1       -2.12977  -0.00003  -0.00037  -0.00104  -0.00141  -2.13117
    D2        2.12974   0.00002   0.00037   0.00096   0.00133   2.13107
    D3       -2.12975  -0.00004  -0.00036  -0.00112  -0.00148  -2.13123
    D4        2.02369  -0.00006  -0.00073  -0.00208  -0.00281   2.02088
         Item               Value     Threshold  Converged?
 Maximum Force            0.000219     0.000450     YES
 RMS     Force            0.000072     0.000300     YES
 Maximum Displacement     0.016704     0.001800     NO 
 RMS     Displacement     0.005983     0.001200     NO 
 Predicted change in Energy=-1.274785D-06
 Lowest energy point so far.  Saving SCF results.
 GradGradGradGradGradGradGradGradGradGradGradGradGradGradGradGradGradGrad

 Leave Link  103 at Thu Mar 19 18:10:32 2026, MaxMem=   536870912 cpu:         0.0
 (Enter C:\G09W\l202.exe)
                          Input orientation:                          
 ---------------------------------------------------------------------
 Center     Atomic      Atomic             Coordinates (Angstroms)
 Number     Number       Type             X           Y           Z
 ---------------------------------------------------------------------
      1          6           0       -0.937928    0.103318    0.428808
      2          6           0        0.499773   -0.050485    0.228641
      3          6           0        1.688479   -0.179175    0.063754
      4          1           0       -1.444546    0.359088   -0.509608
      5          1           0       -1.387654   -0.822322    0.807825
      6          1           0       -1.155423    0.898878    1.151628
      7          1           0        2.737299   -0.309301   -0.076260
 ---------------------------------------------------------------------
                    Distance matrix (angstroms):
                    1          2          3          4          5
     1  C    0.000000
     2  C    1.459694   0.000000
     3  C    2.666661   1.206967   0.000000
     4  H    1.096679   2.119702   3.230219   0.000000
     5  H    1.096685   2.119803   3.229531   1.770479   0.000000
     6  H    1.096672   2.119639   3.230084   1.770500   1.770497
     7  H    3.732646   2.272988   1.066096   4.257037   4.249710
                    6          7
     6  H    0.000000
     7  H    4.256840   0.000000
 Stoichiometry    C3H4
 Framework group  C1[X(C3H4)]
 Deg. of freedom    15
 Full point group                 C1      NOp   1
 RotChk:  IX=1 Diff= 8.04D-01
 Largest Abelian subgroup         C1      NOp   1
 Largest concise Abelian subgroup C1      NOp   1
                         Standard orientation:                         
 ---------------------------------------------------------------------
 Center     Atomic      Atomic             Coordinates (Angstroms)
 Number     Number       Type             X           Y           Z
 ---------------------------------------------------------------------
      1          6           0       -1.240860   -0.000970    0.000082
      2          6           0        0.218832    0.001780   -0.000175
      3          6           0        1.425799    0.002429   -0.000166
      4          1           0       -1.639120    0.449205   -0.917216
      5          1           0       -1.636318   -1.021592    0.068352
      6          1           0       -1.638946    0.567343    0.849338
      7          1           0        2.491762   -0.014385    0.001081
 ---------------------------------------------------------------------
 Rotational constants (GHZ):    159.9563585      8.5292581      8.5292173
 Leave Link  202 at Thu Mar 19 18:10:32 2026, MaxMem=   536870912 cpu:         0.0
 (Enter C:\G09W\l301.exe)
 Standard basis: 6-31G(d) (6D, 7F)
 Ernie: Thresh=  0.10000D-02 Tol=  0.10000D-05 Strict=F.
 There are    53 symmetry adapted cartesian basis functions of A   symmetry.
 There are    53 symmetry adapted basis functions of A   symmetry.
    53 basis functions,   100 primitive gaussians,    53 cartesian basis functions
    11 alpha electrons       11 beta electrons
       nuclear repulsion energy        58.6021636077 Hartrees.
 IExCor=  402 DFT=T Ex+Corr=B3LYP ExCW=0 ScaHFX=  0.200000
 ScaDFX=  0.800000  0.720000  1.000000  0.810000 ScalE2=  1.000000  1.000000
 IRadAn=      0 IRanWt=     -1 IRanGd=            0 ICorTp=0 IEmpDi=  4
 NAtoms=    7 NActive=    7 NUniq=    7 SFac= 1.00D+00 NAtFMM=   60 NAOKFM=F Big=F
 Integral buffers will be    131072 words long.
 Raffenetti 2 integral format.
 Two-electron integral symmetry is turned on.
 Leave Link  301 at Thu Mar 19 18:10:32 2026, MaxMem=   536870912 cpu:         0.0
 (Enter C:\G09W\l302.exe)
 NPDir=0 NMtPBC=     1 NCelOv=     1 NCel=       1 NClECP=     1 NCelD=      1
[...]
 Leave Link  502 at Thu Mar 19 18:10:39 2026, MaxMem=   536870912 cpu:         2.0
 (Enter C:\G09W\l701.exe)
 Compute integral first derivatives.
 ... and contract with generalized density number  0.
 Leave Link  701 at Thu Mar 19 18:10:39 2026, MaxMem=   536870912 cpu:         0.0
 (Enter C:\G09W\l702.exe)
 L702 exits ... SP integral derivatives will be done elsewhere.
 Leave Link  702 at Thu Mar 19 18:10:39 2026, MaxMem=   536870912 cpu:         0.0
 (Enter C:\G09W\l703.exe)
 Compute integral first derivatives, UseDBF=F ICtDFT=           0.
 Integral derivatives from FoFJK, PRISM(SPDF).
 Calling FoFJK, ICntrl=      2127 FMM=F ISym2X=0 I1Cent= 0 IOpClX= 0 NMat=1 NMatS=1 NMatT=0.
 FoFJK:  IHMeth= 1 ICntrl=    2127 DoSepK=F KAlg= 0 I1Cent=   0 FoldK=F
 IRaf=         0 NMat=   1 IRICut=       1 DoRegI=T DoRafI=F ISym2E= 0.
 FoFCou: FMM=F IPFlag=           0 FMFlag=      100000 FMFlg1=         800
         NFxFlg=           0 DoJE=F BraDBF=F KetDBF=F FulRan=T
         wScrn=  0.000000 ICntrl=    2127 IOpCl=  0 I1Cent=           0 NGrid=           0
         NMat0=    1 NMatS0=      1 NMatT0=    0 NMatD0=    1 NMtDS0=    0 NMtDT0=    0
 Symmetry not used in FoFCou.
 Leave Link  703 at Thu Mar 19 18:10:40 2026, MaxMem=   536870912 cpu:         0.0
 (Enter C:\G09W\l716.exe)
 Dipole        =-2.70102375D-01 6.56083956D-05-2.65775311D-05
 ***** Axes restored to original set *****
 -------------------------------------------------------------------
 Center     Atomic                   Forces (Hartrees/Bohr)
 Number     Number              X              Y              Z
 -------------------------------------------------------------------
      1        6          -0.000033167    0.000000115   -0.000000965
      2        6           0.000015311   -0.000004905   -0.000002089
      3        6          -0.000001619    0.000006263   -0.000000443
      4        1           0.000007720   -0.000000299    0.000002960
      5        1           0.000005580    0.000000533   -0.000000988
      6        1           0.000005561    0.000001640    0.000002723
      7        1           0.000000614   -0.000003346   -0.000001197
 -------------------------------------------------------------------
 Cartesian Forces:  Max     0.000033167 RMS     0.000008621
 Leave Link  716 at Thu Mar 19 18:10:40 2026, MaxMem=   536870912 cpu:         0.0
 (Enter C:\G09W\l103.exe)

 GradGradGradGradGradGradGradGradGradGradGradGradGradGradGradGradGradGrad
 Berny optimization.
 Using GEDIIS/GDIIS optimizer.
 FormGI is forming the generalized inverse of G from B-inverse, IUseBI=4.
 Internal  Forces:  Max     0.000014810 RMS     0.000004382
 Search for a local minimum.
 Step number   5 out of a maximum of   30
 All quantities printed in internal units (Hartrees-Bohrs-Radians)
 RMS Force = .43825D-05 SwitMx=.10000D-02 MixMth= 2
 Mixed Optimization -- En-DIIS/RFO-DIIS
 Swapping is turned off.
 Update second derivatives using D2CorX and points    1    2    3    4    5
 DE= -7.15D-06 DEPred=-7.67D-06 R= 9.33D-01
 TightC=F SS=  1.41D+00  RLast= 1.67D-02 DXNew= 2.5227D-01 5.0244D-02
 Trust test= 9.33D-01 RLast= 1.67D-02 DXMaxT set to 1.50D-01
 The second derivative matrix:
                          R1        R2        R3        R4        R5
           R1           0.33058
           R2           0.00739   0.34202
           R3           0.00811  -0.00148   0.34183
           R4           0.00934  -0.00164  -0.00173   0.34150
           R5           0.01173   0.00080   0.00141   0.00277   1.12714
           R6          -0.00170   0.00040   0.00044   0.00051  -0.00270
           A1           0.03993  -0.01053  -0.01071  -0.01077  -0.00246
           A2           0.03553  -0.00927  -0.00925  -0.00951  -0.00137
           A3           0.02306  -0.00548  -0.00583  -0.00603   0.00141
           A4          -0.04663   0.01247   0.01256   0.01262   0.00357
           A5          -0.03024   0.00753   0.00783   0.00799  -0.00030
           A6          -0.02768   0.00682   0.00697   0.00729  -0.00105
           A7           0.00017   0.00053  -0.00075   0.00027  -0.00011
           A8           0.00085   0.00048  -0.00131  -0.00005   0.00094
           A9           0.00066  -0.00014  -0.00014  -0.00017   0.00040
           A10         -0.00015   0.00002   0.00002   0.00001  -0.00018
           D1           0.01463  -0.00443  -0.00436  -0.00411  -0.00375
           D2          -0.01138   0.00350   0.00333   0.00322   0.00302
           D3           0.01537  -0.00462  -0.00462  -0.00430  -0.00405
           D4           0.02676  -0.00813  -0.00795  -0.00752  -0.00708
                          R6        A1        A2        A3        A4
           R6           0.37818
           A1          -0.00171   0.14720
           A2          -0.00139  -0.01254   0.14834
           A3          -0.00062  -0.01162  -0.01116   0.15180
           A4           0.00207   0.01377   0.01348   0.01324   0.14542
           A5           0.00100   0.01274   0.01233   0.00991  -0.01424
           A6           0.00086   0.01263   0.01164   0.00970  -0.01405
           A7           0.00033  -0.00028  -0.00378   0.00181   0.00155
           A8           0.00003   0.00017  -0.00465   0.00284   0.00150
           A9          -0.00004  -0.00021  -0.00016  -0.00020   0.00021
           A10         -0.00001   0.00000   0.00001   0.00003   0.00001
           D1          -0.00099  -0.00036  -0.00096  -0.00251  -0.00023
           D2           0.00078   0.00027   0.00037   0.00215   0.00033
           D3          -0.00101  -0.00040  -0.00122  -0.00257  -0.00015
           D4          -0.00179  -0.00067  -0.00159  -0.00472  -0.00048
                          A5        A6        A7        A8        A9
           A5           0.14847
           A6          -0.01130   0.14934
           A7          -0.00107   0.00189   0.07054
           A8          -0.00188   0.00211   0.03113   0.04764
           A9           0.00021   0.00017  -0.00030  -0.00036   0.04725
           A10         -0.00002  -0.00003  -0.00004  -0.00005   0.00000
           D1           0.00193   0.00233   0.00027   0.00046  -0.00002
           D2          -0.00160  -0.00165   0.00201   0.00264  -0.00001
           D3           0.00200   0.00255   0.00143   0.00200  -0.00004
           D4           0.00360   0.00421  -0.00058  -0.00064  -0.00003
                          A10       D1        D2        D3        D4
           A10          0.00556
           D1          -0.00004   0.00454
           D2           0.00002  -0.00174   0.00385
           D3          -0.00004   0.00237  -0.00175   0.00486
           D4          -0.00006   0.00412  -0.00330   0.00431   0.00990
 ITU=  1 -1  1  1  0
     Eigenvalues ---    0.00556   0.02581   0.04544   0.04729   0.05213
     Eigenvalues ---    0.08196   0.09311   0.15539   0.16121   0.32256
     Eigenvalues ---    0.34341   0.34341   0.34963   0.37823   1.12739
 En-DIIS/RFO-DIIS IScMMF=        0 using points:     5    4    3    2
 RFO step:  Lambda= 0.00000000D+00.
 NNeg= 0 NP= 4 Switch=  2.50D-03 Rises=F DC=  2.81D-06 SmlDif=  1.00D-05
 RMS Error=  0.1417503217D-04 NUsed= 4 EDIIS=F
 DidBck=F Rises=F RFO-DIIS coefs:    0.85491    0.01932    0.13947   -0.01369
 Iteration  1 RMS(Cart)=  0.00004269 RMS(Int)=  0.00000001
 Iteration  2 RMS(Cart)=  0.00000001 RMS(Int)=  0.00000001
 ITry= 1 IFail=0 DXMaxC= 1.32D-04 DCOld= 1.00D+10 DXMaxT= 1.50D-01 DXLimC= 3.00D+00 Rises=F
 Variable       Old X    -DE/DX   Delta X   Delta X   Delta X     New X
                                 (Linear)    (Quad)   (Total)
    R1        2.75949   0.00001   0.00004   0.00002   0.00006   2.75955
    R2        2.07220  -0.00001  -0.00001  -0.00002  -0.00002   2.07218
    R3        2.07220   0.00000  -0.00001  -0.00001  -0.00001   2.07219
    R4        2.07219   0.00000  -0.00001   0.00000   0.00000   2.07219
    R5        2.28120   0.00000   0.00001  -0.00001   0.00000   2.28120
    R6        2.01458   0.00000   0.00001   0.00000   0.00000   2.01458
    A1        1.94093   0.00000  -0.00006   0.00001  -0.00005   1.94088
    A2        1.94094   0.00000  -0.00005   0.00001  -0.00004   1.94090
    A3        1.94089   0.00000  -0.00005   0.00000  -0.00005   1.94084
    A4        1.87939   0.00000   0.00006  -0.00001   0.00005   1.87944
    A5        1.87940   0.00000   0.00006  -0.00001   0.00005   1.87945
    A6        1.87940   0.00000   0.00006  -0.00001   0.00005   1.87945
    A7        3.14154   0.00000   0.00003   0.00007   0.00010   3.14164
    A8        3.14175  -0.00001  -0.00012  -0.00005  -0.00017   3.14157
    A9        3.14175   0.00000  -0.00001   0.00001   0.00000   3.14174
   A10        3.14172   0.00000   0.00000  -0.00010  -0.00010   3.14162
    D1       -2.13052   0.00000   0.00006  -0.00001   0.00005  -2.13047
    D2        2.13050   0.00000  -0.00007   0.00001  -0.00006   2.13044
    D3       -2.13051   0.00000   0.00006  -0.00001   0.00005  -2.13046
    D4        2.02218   0.00000   0.00013  -0.00002   0.00011   2.02229
         Item               Value     Threshold  Converged?
 Maximum Force            0.000015     0.000450     YES
 RMS     Force            0.000004     0.000300     YES
 Maximum Displacement     0.000132     0.001800     YES
 RMS     Displacement     0.000043     0.001200     YES
 Predicted change in Energy=-2.003893D-09
 Optimization completed.
    -- Stationary point found.
                           ----------------------------
                           !   Optimized Parameters   !
                           ! (Angstroms and Degrees)  !
 --------------------------                            --------------------------
 ! Name  Definition              Value          Derivative Info.                !
 --------------------------------------------------------------------------------
 ! R1    R(1,2)                  1.4603         -DE/DX =    0.0                 !
 ! R2    R(1,4)                  1.0966         -DE/DX =    0.0                 !
 ! R3    R(1,5)                  1.0966         -DE/DX =    0.0                 !
 ! R4    R(1,6)                  1.0966         -DE/DX =    0.0                 !
 ! R5    R(2,3)                  1.2072         -DE/DX =    0.0                 !
 ! R6    R(3,7)                  1.0661         -DE/DX =    0.0                 !
 ! A1    A(2,1,4)              111.2072         -DE/DX =    0.0                 !
 ! A2    A(2,1,5)              111.2078         -DE/DX =    0.0                 !
 ! A3    A(2,1,6)              111.2047         -DE/DX =    0.0                 !
 ! A4    A(4,1,5)              107.6809         -DE/DX =    0.0                 !
 ! A5    A(4,1,6)              107.6818         -DE/DX =    0.0                 !
 ! A6    A(5,1,6)              107.6817         -DE/DX =    0.0                 !
 ! A7    L(1,2,3,5,-1)         179.997          -DE/DX =    0.0                 !
 ! A8    L(2,3,7,5,-1)         180.0089         -DE/DX =    0.0                 !
 ! A9    L(1,2,3,5,-2)         180.0088         -DE/DX =    0.0                 !
 ! A10   L(2,3,7,5,-2)         180.0075         -DE/DX =    0.0                 !
 ! D1    D(2,1,5,4)           -122.0699         -DE/DX =    0.0                 !
 ! D2    D(2,1,6,4)            122.0685         -DE/DX =    0.0                 !
 ! D3    D(2,1,6,5)           -122.0692         -DE/DX =    0.0                 !
 ! D4    D(4,1,6,5)            115.8623         -DE/DX =    0.0                 !
 --------------------------------------------------------------------------------
 GradGradGradGradGradGradGradGradGradGradGradGradGradGradGradGradGradGrad

 Largest change from initial coordinates is atom    4       0.682 Angstoms.
 Leave Link  103 at Thu Mar 19 18:10:40 2026, MaxMem=   536870912 cpu:         0.0
 (Enter C:\G09W\l202.exe)
                          Input orientation:                          
 ---------------------------------------------------------------------
 Center     Atomic      Atomic             Coordinates (Angstroms)
 Number     Number       Type             X           Y           Z
 ---------------------------------------------------------------------
      1          6           0       -0.938499    0.103276    0.428926
      2          6           0        0.499489   -0.054988    0.230175
      3          6           0        1.688248   -0.185853    0.065976
      4          1           0       -1.442875    0.360004   -0.510299
      5          1           0       -1.390670   -0.821031    0.807933
      6          1           0       -1.153779    0.899847    1.151120
      7          1           0        2.738085   -0.301253   -0.079043
 ---------------------------------------------------------------------
                    Distance matrix (angstroms):
                    1          2          3          4          5
     1  C    0.000000
     2  C    1.460260   0.000000
     3  C    2.667419   1.207160   0.000000
     4  H    1.096562   2.119740   3.230168   0.000000
     5  H    1.096562   2.119747   3.230121   1.770679   0.000000
     6  H    1.096556   2.119704   3.230077   1.770683   1.770682
     7  H    3.733489   2.273230   1.066070   4.254841   4.254822
                    6          7
     6  H    0.000000
     7  H    4.254709   0.000000
 Stoichiometry    C3H4
 Framework group  C1[X(C3H4)]
 Deg. of freedom    15
 Full point group                 C1      NOp   1
 RotChk:  IX=0 Diff= 1.23D-09
 Largest Abelian subgroup         C1      NOp   1
 Largest concise Abelian subgroup C1      NOp   1
                         Standard orientation:                         
 ---------------------------------------------------------------------
 Center     Atomic      Atomic             Coordinates (Angstroms)
 Number     Number       Type             X           Y           Z
 ---------------------------------------------------------------------
      1          6           0       -1.241345    0.000011    0.000005
      2          6           0        0.218915   -0.000033   -0.000032
      3          6           0        1.426075   -0.000012    0.000029
      4          1           0       -1.638058   -0.623557   -0.810075
      5          1           0       -1.638015   -0.389735    0.945097
      6          1           0       -1.637943    1.013383   -0.134984
      7          1           0        2.492145    0.000112   -0.000053
 ---------------------------------------------------------------------
 Rotational constants (GHZ):    159.9378515      8.5255990      8.5255975
 Leave Link  202 at Thu Mar 19 18:10:40 2026, MaxMem=   536870912 cpu:         0.0
 (Enter C:\G09W\l601.exe)
 Copying SCF densities to generalized density rwf, IOpCl= 0 IROHF=0.

 **********************************************************************

            Population analysis using the SCF density.

 **********************************************************************

 Orbital symmetries:
       Occupied  (A) (A) (A) (A) (A) (A) (A) (A) (A) (A) (A)
       Virtual   (A) (A) (A) (A) (A) (A) (A) (A) (A) (A) (A) (A)
                 (A) (A) (A) (A) (A) (A) (A) (A) (A) (A) (A) (A)
                 (A) (A) (A) (A) (A) (A) (A) (A) (A) (A) (A) (A)
                 (A) (A) (A) (A) (A) (A)
 The electronic state is 1-A.
 Alpha  occ. eigenvalues --  -10.20678 -10.18410 -10.17197  -0.77366  -0.69453
 Alpha  occ. eigenvalues --   -0.52430  -0.44938  -0.42910  -0.42910  -0.25949
 Alpha  occ. eigenvalues --   -0.25948
 Alpha virt. eigenvalues --    0.06196   0.06196   0.10947   0.13282   0.18291
 Alpha virt. eigenvalues --    0.18292   0.23869   0.40189   0.46337   0.52878
 Alpha virt. eigenvalues --    0.52878   0.62900   0.62900   0.72559   0.72560
 Alpha virt. eigenvalues --    0.76909   0.79032   0.85826   0.85826   0.90829
 Alpha virt. eigenvalues --    1.01533   1.19602   1.41279   1.41280   1.48211
 Alpha virt. eigenvalues --    1.55700   1.55701   1.56788   1.87196   1.87198
 Alpha virt. eigenvalues --    1.94922   1.94925   2.10213   2.22300   2.22301
 Alpha virt. eigenvalues --    2.60240   2.71330   2.71331   3.34846   4.09774
 Alpha virt. eigenvalues --    4.25059   4.63725
          Condensed to atoms (all electrons):
               1          2          3          4          5          6
     1  C    5.280160   0.389460  -0.173018   0.358649   0.358633   0.358651
     2  C    0.389460   4.580105   0.790940  -0.023442  -0.023432  -0.023446
     3  C   -0.173018   0.790940   5.491063   0.001288   0.001294   0.001288
     4  H    0.358649  -0.023442   0.001288   0.541620  -0.030274  -0.030274
     5  H    0.358633  -0.023432   0.001294  -0.030274   0.541619  -0.030274
     6  H    0.358651  -0.023446   0.001288  -0.030274  -0.030274   0.541618
     7  H    0.002438   0.004889   0.347873  -0.000011  -0.000011  -0.000011
               7
     1  C    0.002438
     2  C    0.004889
     3  C    0.347873
     4  H   -0.000011
     5  H   -0.000011
     6  H   -0.000011
     7  H    0.461392
 Mulliken charges:
               1
     1  C   -0.574975
     2  C    0.304926
     3  C   -0.460728
     4  H    0.182444
     5  H    0.182445
     6  H    0.182447
     7  H    0.183441
 Sum of Mulliken charges =   0.00000
 Mulliken charges with hydrogens summed into heavy atoms:
               1
     1  C   -0.027639
     2  C    0.304926
     3  C   -0.277287
 Electronic spatial extent (au):  <R**2>=            178.2580
 Charge=              0.0000 electrons
 Dipole moment (field-independent basis, Debye):
    X=             -0.6865    Y=              0.0002    Z=             -0.0001  Tot=              0.6865
 Quadrupole moment (field-independent basis, Debye-Ang):
   XX=            -13.7073   YY=            -19.0518   ZZ=            -19.0518
   XY=              0.0004   XZ=             -0.0002   YZ=              0.0000
 Traceless Quadrupole moment (field-independent basis, Debye-Ang):
   XX=              3.5630   YY=             -1.7815   ZZ=             -1.7815
   XY=              0.0004   XZ=             -0.0002   YZ=              0.0000
 Octapole moment (field-independent basis, Debye-Ang**2):
  XXX=              9.3312  YYY=              0.5750  ZZZ=              0.2411  XYY=             -2.4261
  XXY=              0.0008  XXZ=             -0.0005  XZZ=             -2.4262  YZZ=             -0.5745
  YYZ=             -0.2412  XYZ=              0.0000
 Hexadecapole moment (field-independent basis, Debye-Ang**3):
 XXXX=           -156.8209 YYYY=            -25.8703 ZZZZ=            -25.8704 XXXY=              0.0031
 XXXZ=             -0.0014 YYYX=             -0.9915 YYYZ=              0.0000 ZZZX=             -0.4164
 ZZZY=              0.0000 XXYY=            -36.2132 XXZZ=            -36.2130 YYZZ=             -8.6235
 XXYZ=              0.0000 YYXZ=              0.4161 ZZXY=              0.9919
 N-N= 5.859291363157D+01 E-N=-3.869021188236D+02  KE= 1.154721275498D+02
 No NMR shielding tensors so no spin-rotation constants.
 Leave Link  601 at Thu Mar 19 18:10:41 2026, MaxMem=   536870912 cpu:         0.0
 (Enter C:\G09W\l9999.exe)
 1|1|UNPC-DESKTOP-GS7R1K3|FOpt|RB3LYP|6-31G(d)|C3H4|1172|19-Mar-2026|0|
 |#p opt B3LYP/6-31G(d)||propyne||0,1|C,-0.9384986752,0.1032758347,0.42
 89264842|C,0.4994890509,-0.0549879896,0.2301747921|C,1.6882479075,-0.1
 858534329,0.0659757354|H,-1.4428754378,0.3600036619,-0.5102986206|H,-1
 .3906696757,-0.8210308899,0.8079329462|H,-1.1537790437,0.8998468495,1.
 1511200135|H,2.738084874,-0.3012530337,-0.0790433507||Version=EM64W-G0
 9RevD.01|State=1-A|HF=-116.6532698|RMSD=6.275e-009|RMSF=8.621e-006|Dip
 ole=-0.265973,0.0293362,0.0367838|Quadrupole=2.528876,-1.2779006,-1.25
 09754,-0.4237953,-0.5323071,0.0585553|PG=C01 [X(C3H4)]||@


 IF YOU DON'T HAVE THE LAW - ARGUE THE FACTS.
 IF YOU DON'T HAVE THE FACTS - ARGUE THE LAW.
 IF YOU DON'T HAVE EITHER - POUND THE TABLE.
 Job cpu time:       0 days  0 hours  0 minutes 23.0 seconds.
 File lengths (MBytes):  RWF=      5 Int=      0 D2E=      0 Chk=      1 Scr=      1
 Normal termination of Gaussian 09 at Thu Mar 19 18:10:41 2026.
